VARIABLES= X,Y,U,V,Vel,R
ZONE I=104,J=80 F=POINT
15.000000 15.000000 0.000000 0.000000 0.000000 0.216450
30.000000 15.000000 0.000000 0.000000 0.000000 0.261244
45.000000 15.000000 0.000000 0.000000 0.000000 0.263403
60.000000 15.000000 0.000000 0.000000 0.000000 0.280769
75.000000 15.000000 0.000000 0.000000 0.000000 0.296541
90.000000 15.000000 0.000000 0.000000 0.000000 0.321461
105.000000 15.000000 0.000000 0.000000 0.000000 0.261797
120.000000 15.000000 0.000000 0.000000 0.000000 0.220424
135.000000 15.000000 0.000000 0.000000 0.000000 0.316951
150.000000 15.000000 0.000000 0.000000 0.000000 0.297298
165.000000 15.000000 0.000000 0.000000 0.000000 0.256920
180.000000 15.000000 0.000000 0.000000 0.000000 0.375332
195.000000 15.000000 0.000000 0.000000 0.000000 0.392235
210.000000 15.000000 0.000000 0.000000 0.000000 0.393854
225.000000 15.000000 6.834098 0.282622 6.839939 0.400548
240.000000 15.000000 0.000000 0.000000 0.000000 0.361285
255.000000 15.000000 6.862687 0.311670 6.869760 0.410964
270.000000 15.000000 6.835989 0.274280 6.841489 0.491974
285.000000 15.000000 6.841308 0.275846 6.846867 0.492506
300.000000 15.000000 6.851112 0.278781 6.856782 0.483223
315.000000 15.000000 6.874172 0.267500 6.879375 0.476027
330.000000 15.000000 6.884328 0.265075 6.889429 0.536027
345.000000 15.000000 6.892681 0.259291 6.897556 0.583439
360.000000 15.000000 6.885171 0.292454 6.891379 0.514025
375.000000 15.000000 6.914013 0.305428 6.920756 0.460980
390.000000 15.000000 6.922914 0.277564 6.928476 0.528869
405.000000 15.000000 6.921669 0.262779 6.926656 0.626963
420.000000 15.000000 6.924954 0.258888 6.929791 0.621266
435.000000 15.000000 6.925732 0.252339 6.930328 0.575338
450.000000 15.000000 6.900639 0.254549 6.905332 0.639466
465.000000 15.000000 6.901117 0.257071 6.905903 0.647324
480.000000 15.000000 6.890719 0.248247 6.895189 0.670459
495.000000 15.000000 6.911556 0.251270 6.916122 0.693608
510.000000 15.000000 6.951444 0.252164 6.956016 0.698959
525.000000 15.000000 6.947719 0.257594 6.952493 0.730549
540.000000 15.000000 6.967122 0.250335 6.971618 0.765622
555.000000 15.000000 6.961191 0.247175 6.965578 0.773583
570.000000 15.000000 6.981445 0.243492 6.985690 0.778306
585.000000 15.000000 6.960382 0.238299 6.964460 0.775133
600.000000 15.000000 6.966978 0.232862 6.970869 0.761236
615.000000 15.000000 6.945502 0.240061 6.949649 0.762431
630.000000 15.000000 6.951868 0.239423 6.955990 0.794623
645.000000 15.000000 6.953148 0.251428 6.957692 0.763190
660.000000 15.000000 6.969261 0.262456 6.974201 0.771242
675.000000 15.000000 6.967360 0.258445 6.972151 0.787246
690.000000 15.000000 6.966233 0.263075 6.971199 0.750227
705.000000 15.000000 6.947285 0.270128 6.952534 0.742256
720.000000 15.000000 6.955084 0.267685 6.960234 0.756302
735.000000 15.000000 6.958567 0.278231 6.964127 0.758843
750.000000 15.000000 6.933405 0.287885 6.939379 0.760193
765.000000 15.000000 6.930559 0.293444 6.936769 0.776070
780.000000 15.000000 6.964055 0.299659 6.970499 0.798593
795.000000 15.000000 6.972134 0.302321 6.978685 0.798718
810.000000 15.000000 6.965883 0.322046 6.973323 0.791872
825.000000 15.000000 6.968373 0.284513 6.974179 0.834686
840.000000 15.000000 6.974675 0.268015 6.979823 0.839256
855.000000 15.000000 6.986291 0.272669 6.991610 0.814910
870.000000 15.000000 6.994688 0.280649 7.000316 0.814670
885.000000 15.000000 6.967852 0.285601 6.973702 0.836166
900.000000 15.000000 6.944566 0.289808 6.950611 0.835900
915.000000 15.000000 6.966678 0.273382 6.972040 0.869889
930.000000 15.000000 6.967365 0.273419 6.972728 0.884181
945.000000 15.000000 6.949459 0.283499 6.955240 0.858207
960.000000 15.000000 6.930801 0.287418 6.936758 0.840921
975.000000 15.000000 6.953040 0.303511 6.959661 0.847808
990.000000 15.000000 6.973809 0.298536 6.980196 0.842094
1005.000000 15.000000 6.968746 0.276926 6.974246 0.798888
1020.000000 15.000000 6.958042 0.284645 6.963862 0.811980
1035.000000 15.000000 6.970298 0.287608 6.976229 0.851965
1050.000000 15.000000 6.952176 0.293068 6.958350 0.851071
1065.000000 15.000000 6.965309 0.305758 6.972016 0.833901
1080.000000 15.000000 6.946413 0.287140 6.952345 0.824805
1095.000000 15.000000 6.925995 0.276861 6.931526 0.837239
1110.000000 15.000000 6.925702 0.291285 6.931825 0.823066
1125.000000 15.000000 6.936501 0.300452 6.943005 0.804557
1140.000000 15.000000 6.943250 0.305099 6.949950 0.810096
1155.000000 15.000000 6.940709 0.301159 6.947239 0.766568
1170.000000 15.000000 6.951998 0.313390 6.959058 0.731649
1185.000000 15.000000 6.931607 0.315707 6.938793 0.756769
1200.000000 15.000000 6.911662 0.305348 6.918404 0.719644
1215.000000 15.000000 6.918817 0.321163 6.926267 0.673019
1230.000000 15.000000 6.910020 0.334650 6.918119 0.699628
1245.000000 15.000000 6.926934 0.326059 6.934604 0.764655
1260.000000 15.000000 6.938835 0.327487 6.946559 0.771233
1275.000000 15.000000 6.904704 0.319190 6.912078 0.792511
1290.000000 15.000000 6.900954 0.309345 6.907883 0.786305
1305.000000 15.000000 6.904884 0.338480 6.913175 0.715149
1320.000000 15.000000 6.902390 0.349825 6.911249 0.745366
1335.000000 15.000000 6.898706 0.335773 6.906872 0.711425
1350.000000 15.000000 6.905797 0.324476 6.913416 0.676674
1365.000000 15.000000 6.887423 0.347697 6.896194 0.641697
1380.000000 15.000000 6.872585 0.348585 6.881420 0.585707
1395.000000 15.000000 6.865295 0.318210 6.872666 0.643574
1410.000000 15.000000 6.876506 0.301464 6.883111 0.694416
1425.000000 15.000000 6.864709 0.315901 6.871974 0.634512
1440.000000 15.000000 6.854320 0.324909 6.862016 0.581580
1455.000000 15.000000 6.861837 0.333907 6.869956 0.602156
1470.000000 15.000000 6.865750 0.344875 6.874406 0.554298
1485.000000 15.000000 6.856944 0.351430 6.865943 0.480672
1500.000000 15.000000 6.872579 0.331925 6.880590 0.547762
1515.000000 15.000000 6.812476 0.331316 6.820528 0.553349
1530.000000 15.000000 6.753671 0.343923 6.762422 0.527035
1545.000000 15.000000 6.752213 0.364339 6.762035 0.524420
1560.000000 15.000000 6.773634 0.332293 6.781780 0.555340
15.000000 30.000000 0.000000 0.000000 0.000000 0.290534
30.000000 30.000000 0.000000 0.000000 0.000000 0.239230
45.000000 30.000000 0.000000 0.000000 0.000000 0.231154
60.000000 30.000000 0.000000 0.000000 0.000000 0.258518
75.000000 30.000000 0.000000 0.000000 0.000000 0.302428
90.000000 30.000000 0.000000 0.000000 0.000000 0.314262
105.000000 30.000000 0.000000 0.000000 0.000000 0.334543
120.000000 30.000000 0.000000 0.000000 0.000000 0.301452
135.000000 30.000000 0.000000 0.000000 0.000000 0.315594
150.000000 30.000000 0.000000 0.000000 0.000000 0.303470
165.000000 30.000000 0.000000 0.000000 0.000000 0.310924
180.000000 30.000000 6.728780 -0.230047 6.732712 0.403414
195.000000 30.000000 6.699392 -0.235600 6.703533 0.422832
210.000000 30.000000 6.755889 -0.234751 6.759966 0.426295
225.000000 30.000000 6.882357 -0.129609 6.883577 0.439727
240.000000 30.000000 6.923433 -0.090200 6.924021 0.455272
255.000000 30.000000 6.876083 -0.144023 6.877591 0.486152
270.000000 30.000000 6.834027 -0.206307 6.837141 0.466681
285.000000 30.000000 6.824616 -0.274696 6.830142 0.418254
300.000000 30.000000 6.830038 -0.284240 6.835950 0.462034
315.000000 30.000000 6.883666 -0.354850 6.892806 0.475866
330.000000 30.000000 6.898438 -0.218018 6.901882 0.546267
345.000000 30.000000 6.878521 -0.181954 6.880928 0.597291
360.000000 30.000000 6.881841 -0.211794 6.885099 0.570863
375.000000 30.000000 6.894741 -0.215722 6.898115 0.518832
390.000000 30.000000 6.897415 -0.214288 6.900743 0.537346
405.000000 30.000000 6.901557 -0.199391 6.904436 0.602523
420.000000 30.000000 6.895108 -0.187609 6.897660 0.577920
435.000000 30.000000 6.903873 -0.231520 6.907754 0.557135
450.000000 30.000000 6.920053 -0.211621 6.923288 0.609064
465.000000 30.000000 6.900468 -0.221524 6.904023 0.597779
480.000000 30.000000 6.873133 -0.200240 6.876049 0.633835
495.000000 30.000000 6.907660 -0.204173 6.910677 0.688690
510.000000 30.000000 6.962484 -0.213662 6.965761 0.717022
525.000000 30.000000 6.958652 -0.205040 6.961672 0.705283
540.000000 30.000000 6.963248 -0.183612 6.965668 0.728651
555.000000 30.000000 6.974987 -0.226547 6.978665 0.755426
570.000000 30.000000 6.983088 -0.222373 6.986627 0.773098
585.000000 30.000000 6.961401 -0.160078 6.963241 0.793170
600.000000 30.000000 6.962484 -0.168655 6.964526 0.775557
615.000000 30.000000 6.958710 -0.186458 6.961208 0.751090
630.000000 30.000000 6.958628 -0.168535 6.960669 0.773931
645.000000 30.000000 6.938484 -0.110813 6.939368 0.754285
660.000000 30.000000 6.957451 -0.131604 6.958696 0.751817
675.000000 30.000000 6.961115 -0.118141 6.962118 0.768291
690.000000 30.000000 6.962003 -0.073547 6.962391 0.750470
705.000000 30.000000 6.954133 -0.087533 6.954684 0.799721
720.000000 30.000000 6.955778 -0.083791 6.956282 0.807213
735.000000 30.000000 6.973571 -0.080464 6.974035 0.798763
750.000000 30.000000 6.947666 -0.082306 6.948153 0.776077
765.000000 30.000000 6.941271 -0.049819 6.941450 0.742896
780.000000 30.000000 6.968997 -0.056840 6.969229 0.775760
795.000000 30.000000 6.962459 -0.038430 6.962565 0.762686
810.000000 30.000000 6.968935 -0.035561 6.969026 0.761773
825.000000 30.000000 6.969692 -0.070467 6.970049 0.814730
840.000000 30.000000 6.971635 -0.046297 6.971789 0.832114
855.000000 30.000000 6.984246 -0.044951 6.984391 0.829379
870.000000 30.000000 6.964688 -0.030573 6.964755 0.856082
885.000000 30.000000 6.953128 -0.009593 6.953135 0.876843
900.000000 30.000000 6.950065 -0.006151 6.950068 0.845000
915.000000 30.000000 6.974024 0.000847 6.974024 0.821224
930.000000 30.000000 6.993012 0.037429 6.993112 0.847428
945.000000 30.000000 6.980104 0.027760 6.980159 0.871979
960.000000 30.000000 6.956176 0.037669 6.956278 0.852088
975.000000 30.000000 6.968067 0.063970 6.968361 0.858329
990.000000 30.000000 6.978359 0.065863 6.978670 0.841054
1005.000000 30.000000 6.969711 0.033531 6.969791 0.793605
1020.000000 30.000000 6.965319 0.036048 6.965412 0.812543
1035.000000 30.000000 6.964473 0.032374 6.964548 0.840823
1050.000000 30.000000 6.959515 0.053905 6.959723 0.842659
1065.000000 30.000000 6.968227 0.062927 6.968511 0.825184
1080.000000 30.000000 6.942261 0.054480 6.942474 0.817004
1095.000000 30.000000 6.946482 0.034660 6.946569 0.830200
1110.000000 30.000000 6.965026 0.047535 6.965188 0.821059
1125.000000 30.000000 6.963575 0.050627 6.963759 0.809816
1140.000000 30.000000 6.953200 0.037683 6.953302 0.818471
1155.000000 30.000000 6.926898 0.071284 6.927265 0.776896
1170.000000 30.000000 6.932488 0.108241 6.933333 0.726137
1185.000000 30.000000 6.932449 0.114337 6.933391 0.724236
1200.000000 30.000000 6.931268 0.086926 6.931813 0.712589
1215.000000 30.000000 6.922063 0.106842 6.922888 0.732452
1230.000000 30.000000 6.902082 0.118350 6.903096 0.724572
1245.000000 30.000000 6.916993 0.098569 6.917695 0.756518
1260.000000 30.000000 6.954746 0.082082 6.955231 0.784827
1275.000000 30.000000 6.915385 0.081749 6.915868 0.822718
1290.000000 30.000000 6.897106 0.099241 6.897820 0.803793
1305.000000 30.000000 6.882220 0.109201 6.883086 0.761422
1320.000000 30.000000 6.883668 0.114438 6.884619 0.755049
1335.000000 30.000000 6.883171 0.115133 6.884134 0.735072
1350.000000 30.000000 6.895201 0.110690 6.896090 0.700009
1365.000000 30.000000 6.858010 0.097639 6.858705 0.663524
1380.000000 30.000000 6.814523 0.083883 6.815040 0.639325
1395.000000 30.000000 6.836233 0.087221 6.836789 0.650932
1410.000000 30.000000 6.867120 0.084846 6.867645 0.644814
1425.000000 30.000000 6.848962 0.125955 6.850120 0.563255
1440.000000 30.000000 6.859073 0.149924 6.860711 0.596076
1455.000000 30.000000 6.873949 0.131785 6.875212 0.614505
1470.000000 30.000000 6.870560 0.104431 6.871354 0.611223
1485.000000 30.000000 6.861117 0.126819 6.862289 0.574996
1500.000000 30.000000 6.870763 0.085881 6.871300 0.584411
1515.000000 30.000000 6.831453 0.060770 6.831723 0.589130
1530.000000 30.000000 6.795120 0.050586 6.795308 0.581627
1545.000000 30.000000 6.773418 0.123924 6.774551 0.570986
1560.000000 30.000000 6.776476 0.135031 6.777821 0.571748
15.000000 45.000000 0.000000 0.000000 0.000000 0.300445
30.000000 45.000000 0.000000 0.000000 0.000000 0.233775
45.000000 45.000000 0.000000 0.000000 0.000000 0.246337
60.000000 45.000000 0.000000 0.000000 0.000000 0.317845
75.000000 45.000000 0.000000 0.000000 0.000000 0.351808
90.000000 45.000000 0.000000 0.000000 0.000000 0.313160
105.000000 45.000000 0.000000 0.000000 0.000000 0.325161
120.000000 45.000000 0.000000 0.000000 0.000000 0.366130
135.000000 45.000000 0.000000 0.000000 0.000000 0.360125
150.000000 45.000000 0.000000 0.000000 0.000000 0.353127
165.000000 45.000000 0.000000 0.000000 0.000000 0.390532
180.000000 45.000000 6.856436 -0.189015 6.859041 0.448443
195.000000 45.000000 6.796813 -0.172522 6.799002 0.488580
210.000000 45.000000 6.791022 -0.222520 6.794667 0.481427
225.000000 45.000000 6.811162 -0.207341 6.814317 0.463088
240.000000 45.000000 6.904207 -0.192838 6.906899 0.466146
255.000000 45.000000 6.892554 -0.183009 6.894984 0.497095
270.000000 45.000000 6.861385 -0.218066 6.864850 0.490712
285.000000 45.000000 6.861042 -0.214671 6.864400 0.425187
300.000000 45.000000 6.818806 -0.375222 6.829122 0.415960
315.000000 45.000000 6.888487 -0.440686 6.902569 0.451608
330.000000 45.000000 6.902813 -0.225157 6.906485 0.544682
345.000000 45.000000 6.876946 -0.191604 6.879615 0.573722
360.000000 45.000000 6.894418 -0.197820 6.897255 0.614938
375.000000 45.000000 6.904450 -0.197596 6.907277 0.575207
390.000000 45.000000 6.916356 -0.250198 6.920880 0.519125
405.000000 45.000000 6.904762 -0.266272 6.909895 0.556646
420.000000 45.000000 6.892115 -0.255900 6.896864 0.540580
435.000000 45.000000 6.914872 -0.250113 6.919394 0.527341
450.000000 45.000000 6.943797 -0.238621 6.947896 0.582412
465.000000 45.000000 6.887386 -0.214980 6.890740 0.630935
480.000000 45.000000 6.868637 -0.194578 6.871392 0.659384
495.000000 45.000000 6.914623 -0.180038 6.916967 0.674658
510.000000 45.000000 6.979668 -0.184366 6.982102 0.700847
525.000000 45.000000 6.986433 -0.187555 6.988950 0.695274
540.000000 45.000000 6.977614 -0.154318 6.979320 0.706471
555.000000 45.000000 6.971646 -0.181928 6.974020 0.691883
570.000000 45.000000 6.980414 -0.201196 6.983313 0.748576
585.000000 45.000000 6.950403 -0.178289 6.952689 0.775761
600.000000 45.000000 6.952543 -0.173459 6.954707 0.761901
615.000000 45.000000 6.963915 -0.175380 6.966123 0.745566
630.000000 45.000000 6.964543 -0.143899 6.966029 0.781170
645.000000 45.000000 6.945984 -0.095439 6.946640 0.776519
660.000000 45.000000 6.952143 -0.100009 6.952862 0.767041
675.000000 45.000000 6.969925 -0.115623 6.970884 0.793217
690.000000 45.000000 6.966846 -0.103847 6.967620 0.785386
705.000000 45.000000 6.951465 -0.088382 6.952027 0.795710
720.000000 45.000000 6.950530 -0.086003 6.951062 0.795783
735.000000 45.000000 6.977690 -0.074045 6.978083 0.799942
750.000000 45.000000 6.975892 -0.072186 6.976266 0.780621
765.000000 45.000000 6.971957 -0.052620 6.972156 0.696515
780.000000 45.000000 6.981264 -0.059460 6.981518 0.741719
795.000000 45.000000 6.967640 -0.037173 6.967739 0.787538
810.000000 45.000000 6.978532 -0.047918 6.978696 0.768584
825.000000 45.000000 6.974511 -0.064621 6.974811 0.757095
840.000000 45.000000 6.972184 -0.045330 6.972331 0.813890
855.000000 45.000000 6.972511 -0.050493 6.972694 0.837230
870.000000 45.000000 6.961010 -0.034933 6.961098 0.852095
885.000000 45.000000 6.957206 -0.014909 6.957222 0.855908
900.000000 45.000000 6.970741 -0.016748 6.970762 0.825262
915.000000 45.000000 6.999656 -0.016182 6.999675 0.830523
930.000000 45.000000 6.998689 0.022361 6.998725 0.865857
945.000000 45.000000 6.968085 0.021905 6.968119 0.893337
960.000000 45.000000 6.964239 0.022927 6.964276 0.880379
975.000000 45.000000 6.968834 0.025661 6.968881 0.885690
990.000000 45.000000 6.972919 0.026302 6.972968 0.857919
1005.000000 45.000000 6.966857 0.027303 6.966911 0.798427
1020.000000 45.000000 6.966287 0.031541 6.966359 0.815695
1035.000000 45.000000 6.958975 0.044715 6.959119 0.828517
1050.000000 45.000000 6.968259 0.068083 6.968592 0.818343
1065.000000 45.000000 6.960968 0.062409 6.961248 0.810231
1080.000000 45.000000 6.962913 0.042584 6.963044 0.817922
1095.000000 45.000000 6.972792 0.035237 6.972881 0.849349
1110.000000 45.000000 6.956462 0.044970 6.956608 0.814234
1125.000000 45.000000 6.963911 0.075434 6.964319 0.783477
1140.000000 45.000000 6.956066 0.079408 6.956519 0.804345
1155.000000 45.000000 6.933671 0.108448 6.934519 0.794704
1170.000000 45.000000 6.937995 0.118244 6.939002 0.767010
1185.000000 45.000000 6.942919 0.125461 6.944052 0.757408
1200.000000 45.000000 6.932822 0.097859 6.933513 0.777533
1215.000000 45.000000 6.928872 0.102883 6.929636 0.778655
1230.000000 45.000000 6.909703 0.168258 6.911751 0.755299
1245.000000 45.000000 6.920525 0.137146 6.921884 0.761650
1260.000000 45.000000 6.941470 0.098718 6.942172 0.778411
1275.000000 45.000000 6.924256 0.108969 6.925114 0.786789
1290.000000 45.000000 6.914384 0.128364 6.915575 0.762954
1305.000000 45.000000 6.879342 0.123951 6.880459 0.774348
1320.000000 45.000000 6.891848 0.133458 6.893140 0.755684
1335.000000 45.000000 6.909811 0.116549 6.910794 0.772911
1350.000000 45.000000 6.904124 0.113073 6.905050 0.760450
1365.000000 45.000000 6.884381 0.093511 6.885016 0.677696
1380.000000 45.000000 6.831010 0.086252 6.831554 0.674980
1395.000000 45.000000 6.836835 0.087226 6.837392 0.674860
1410.000000 45.000000 6.883038 0.079203 6.883494 0.686999
1425.000000 45.000000 6.872794 0.128836 6.874001 0.644595
1440.000000 45.000000 6.889306 0.141993 6.890769 0.631893
1455.000000 45.000000 6.899310 0.110625 6.900197 0.652088
1470.000000 45.000000 6.894082 0.096739 6.894761 0.670711
1485.000000 45.000000 6.856914 0.112311 6.857834 0.605877
1500.000000 45.000000 6.902414 0.082536 6.902907 0.607382
1515.000000 45.000000 6.861225 0.075484 6.861640 0.603118
1530.000000 45.000000 6.812652 0.064762 6.812960 0.595054
1545.000000 45.000000 6.786440 0.096745 6.787129 0.591442
1560.000000 45.000000 6.769894 0.124903 6.771046 0.554838
15.000000 60.000000 0.000000 0.000000 0.000000 0.219827
30.000000 60.000000 0.000000 0.000000 0.000000 0.234902
45.000000 60.000000 0.000000 0.000000 0.000000 0.220290
60.000000 60.000000 0.000000 0.000000 0.000000 0.224239
75.000000 60.000000 0.000000 0.000000 0.000000 0.248506
90.000000 60.000000 0.000000 0.000000 0.000000 0.229235
105.000000 60.000000 0.000000 0.000000 0.000000 0.263935
120.000000 60.000000 0.000000 0.000000 0.000000 0.345030
135.000000 60.000000 0.000000 0.000000 0.000000 0.363705
150.000000 60.000000 0.000000 0.000000 0.000000 0.332156
165.000000 60.000000 6.813573 -0.199226 6.816485 0.413074
180.000000 60.000000 6.871241 -0.196272 6.874043 0.468214
195.000000 60.000000 6.852486 -0.204098 6.855525 0.487610
210.000000 60.000000 6.775528 -0.224256 6.779239 0.463078
225.000000 60.000000 6.821121 -0.191479 6.823808 0.482079
240.000000 60.000000 6.925503 -0.216353 6.928881 0.515892
255.000000 60.000000 6.892489 -0.204739 6.895529 0.515214
270.000000 60.000000 6.828111 -0.211964 6.831400 0.483710
285.000000 60.000000 6.868325 -0.207079 6.871446 0.467979
300.000000 60.000000 6.732713 -0.576843 6.757379 0.477437
315.000000 60.000000 6.744500 -0.601873 6.771303 0.497737
330.000000 60.000000 6.898987 -0.257575 6.903794 0.521969
345.000000 60.000000 6.908322 -0.246243 6.912710 0.528854
360.000000 60.000000 6.903061 -0.230422 6.906905 0.558677
375.000000 60.000000 6.897815 -0.215802 6.901189 0.551981
390.000000 60.000000 6.907221 -0.266087 6.912344 0.532598
405.000000 60.000000 6.910011 -0.274629 6.915467 0.567879
420.000000 60.000000 6.915100 -0.221382 6.918643 0.578068
435.000000 60.000000 6.913573 -0.234801 6.917559 0.523472
450.000000 60.000000 6.935029 -0.230605 6.938862 0.562751
465.000000 60.000000 6.892546 -0.201612 6.895494 0.648042
480.000000 60.000000 6.881447 -0.225716 6.885148 0.690573
495.000000 60.000000 6.921033 -0.217251 6.924442 0.689449
510.000000 60.000000 6.965718 -0.177131 6.967970 0.665295
525.000000 60.000000 6.988993 -0.126416 6.990136 0.714392
540.000000 60.000000 6.969770 -0.144650 6.971271 0.725444
555.000000 60.000000 6.934677 -0.155028 6.936410 0.687563
570.000000 60.000000 6.940178 -0.147004 6.941734 0.741358
585.000000 60.000000 6.963140 -0.139123 6.964530 0.768564
600.000000 60.000000 6.986041 -0.137837 6.987401 0.752585
615.000000 60.000000 6.984581 -0.172726 6.986717 0.758809
630.000000 60.000000 6.983803 -0.146738 6.985345 0.772442
645.000000 60.000000 6.964771 -0.107780 6.965605 0.785135
660.000000 60.000000 6.965945 -0.140120 6.967354 0.755050
675.000000 60.000000 6.974264 -0.130770 6.975490 0.789037
690.000000 60.000000 6.955783 -0.128950 6.956978 0.797665
705.000000 60.000000 6.973125 -0.103184 6.973889 0.758186
720.000000 60.000000 6.968786 -0.091744 6.969390 0.778870
735.000000 60.000000 6.995726 -0.082969 6.996218 0.836951
750.000000 60.000000 7.008021 -0.068384 7.008355 0.826243
765.000000 60.000000 6.985768 -0.053832 6.985976 0.729466
780.000000 60.000000 6.993613 -0.063599 6.993903 0.714805
795.000000 60.000000 6.979944 -0.031608 6.980016 0.774845
810.000000 60.000000 6.978942 -0.039010 6.979051 0.789583
825.000000 60.000000 6.966607 -0.045337 6.966755 0.773054
840.000000 60.000000 6.976844 -0.045768 6.976995 0.806983
855.000000 60.000000 6.987904 -0.034544 6.987989 0.825771
870.000000 60.000000 6.982514 -0.013034 6.982527 0.827524
885.000000 60.000000 6.982776 -0.020083 6.982805 0.820069
900.000000 60.000000 6.984437 -0.021010 6.984468 0.800564
915.000000 60.000000 6.994836 0.008197 6.994840 0.803811
930.000000 60.000000 6.983168 0.033590 6.983248 0.841618
945.000000 60.000000 6.962080 0.034669 6.962166 0.897213
960.000000 60.000000 6.974779 0.020381 6.974809 0.897970
975.000000 60.000000 6.977739 0.013338 6.977752 0.883517
990.000000 60.000000 6.973130 0.015808 6.973148 0.859366
1005.000000 60.000000 6.949403 0.020614 6.949433 0.835128
1020.000000 60.000000 6.941828 0.027546 6.941883 0.827795
1035.000000 60.000000 6.951995 0.050815 6.952180 0.822775
1050.000000 60.000000 6.965123 0.060615 6.965386 0.818396
1065.000000 60.000000 6.968658 0.067848 6.968989 0.800934
1080.000000 60.000000 6.991134 0.068136 6.991466 0.802564
1095.000000 60.000000 6.989340 0.043986 6.989479 0.822189
1110.000000 60.000000 6.956380 0.064550 6.956679 0.786205
1125.000000 60.000000 6.939149 0.108005 6.939990 0.760830
1140.000000 60.000000 6.941220 0.091491 6.941823 0.749662
1155.000000 60.000000 6.930351 0.105521 6.931154 0.782429
1170.000000 60.000000 6.920155 0.126044 6.921303 0.798285
1185.000000 60.000000 6.934110 0.118863 6.935129 0.793881
1200.000000 60.000000 6.938419 0.087207 6.938967 0.796589
1215.000000 60.000000 6.944832 0.113259 6.945755 0.765339
1230.000000 60.000000 6.925464 0.142082 6.926921 0.756114
1245.000000 60.000000 6.926580 0.106943 6.927406 0.766458
1260.000000 60.000000 6.931261 0.090456 6.931851 0.748269
1275.000000 60.000000 6.912232 0.129937 6.913453 0.715415
1290.000000 60.000000 6.936131 0.126797 6.937290 0.727881
1305.000000 60.000000 6.923146 0.140448 6.924570 0.757368
1320.000000 60.000000 6.927667 0.126733 6.928826 0.753620
1335.000000 60.000000 6.934207 0.107596 6.935041 0.754928
1350.000000 60.000000 6.891418 0.131117 6.892665 0.726034
1365.000000 60.000000 6.896200 0.103231 6.896973 0.724573
1380.000000 60.000000 6.892571 0.114159 6.893516 0.700168
1395.000000 60.000000 6.881140 0.130725 6.882382 0.672738
1410.000000 60.000000 6.876659 0.092789 6.877285 0.673558
1425.000000 60.000000 6.886373 0.101220 6.887117 0.644241
1440.000000 60.000000 6.897819 0.099183 6.898532 0.634757
1455.000000 60.000000 6.879105 0.081345 6.879586 0.653059
1470.000000 60.000000 6.871973 0.080518 6.872445 0.682369
1485.000000 60.000000 6.825861 0.115388 6.826837 0.592237
1500.000000 60.000000 6.875059 0.129523 6.876279 0.570073
1515.000000 60.000000 6.805711 0.104234 6.806509 0.588944
1530.000000 60.000000 6.774395 0.104612 6.775203 0.595637
1545.000000 60.000000 6.793407 0.160250 6.795297 0.585813
1560.000000 60.000000 6.799485 0.119776 6.800539 0.554027
15.000000 75.000000 0.000000 0.000000 0.000000 0.197166
30.000000 75.000000 0.000000 0.000000 0.000000 0.224135
45.000000 75.000000 0.000000 0.000000 0.000000 0.356959
60.000000 75.000000 0.000000 0.000000 0.000000 0.304686
75.000000 75.000000 0.000000 0.000000 0.000000 0.209659
90.000000 75.000000 0.000000 0.000000 0.000000 0.203581
105.000000 75.000000 0.000000 0.000000 0.000000 0.186013
120.000000 75.000000 0.000000 0.000000 0.000000 0.248217
135.000000 75.000000 0.000000 0.000000 0.000000 0.310962
150.000000 75.000000 0.000000 0.000000 0.000000 0.342019
165.000000 75.000000 6.824002 -0.299572 6.830574 0.400041
180.000000 75.000000 6.843454 -0.301687 6.850101 0.431954
195.000000 75.000000 6.836423 -0.217345 6.839877 0.447239
210.000000 75.000000 6.808308 -0.202229 6.811311 0.461234
225.000000 75.000000 6.849516 -0.185305 6.852022 0.501588
240.000000 75.000000 6.895984 -0.217841 6.899424 0.544793
255.000000 75.000000 6.906232 -0.332006 6.914208 0.510174
270.000000 75.000000 6.871972 -0.327203 6.879758 0.492468
285.000000 75.000000 6.849136 -0.244988 6.853516 0.516834
300.000000 75.000000 6.898415 -0.434940 6.912113 0.513977
315.000000 75.000000 6.922434 -0.456375 6.937462 0.496137
330.000000 75.000000 6.909295 -0.222535 6.912878 0.532475
345.000000 75.000000 6.884486 -0.201781 6.887443 0.569614
360.000000 75.000000 6.870029 -0.212171 6.873305 0.551704
375.000000 75.000000 6.903944 -0.162379 6.905853 0.567837
390.000000 75.000000 6.899542 -0.152937 6.901237 0.621781
405.000000 75.000000 6.876346 -0.269527 6.881626 0.570080
420.000000 75.000000 6.964710 -0.234458 6.968655 0.652030
435.000000 75.000000 6.954807 -0.236518 6.958828 0.638677
450.000000 75.000000 6.961093 -0.277703 6.966630 0.613842
465.000000 75.000000 6.936273 -0.263225 6.941266 0.638244
480.000000 75.000000 6.913973 -0.263396 6.918989 0.702735
495.000000 75.000000 6.916919 -0.258885 6.921762 0.703764
510.000000 75.000000 6.941800 -0.264739 6.946847 0.679285
525.000000 75.000000 6.969718 -0.177778 6.971985 0.717941
540.000000 75.000000 6.949462 -0.173511 6.951628 0.720067
555.000000 75.000000 6.939066 -0.156741 6.940836 0.698385
570.000000 75.000000 6.929838 -0.125796 6.930980 0.718244
585.000000 75.000000 6.963034 -0.127282 6.964197 0.751424
600.000000 75.000000 6.983499 -0.176271 6.985724 0.735030
615.000000 75.000000 6.946815 -0.197488 6.949621 0.736219
630.000000 75.000000 6.957927 -0.178044 6.960205 0.735276
645.000000 75.000000 6.975436 -0.157038 6.977203 0.760558
660.000000 75.000000 6.968648 -0.180669 6.970990 0.789349
675.000000 75.000000 6.960645 -0.155686 6.962386 0.784851
690.000000 75.000000 6.963926 -0.134241 6.965220 0.761345
705.000000 75.000000 6.979770 -0.112133 6.980671 0.737143
720.000000 75.000000 6.960229 -0.109018 6.961083 0.766188
735.000000 75.000000 6.983407 -0.092619 6.984021 0.828337
750.000000 75.000000 7.004179 -0.064522 7.004476 0.820238
765.000000 75.000000 6.979981 -0.055908 6.980205 0.758118
780.000000 75.000000 6.964620 -0.088741 6.965186 0.723165
795.000000 75.000000 6.988074 -0.063525 6.988362 0.770924
810.000000 75.000000 6.995507 -0.048972 6.995678 0.794141
825.000000 75.000000 6.975415 -0.036560 6.975511 0.789620
840.000000 75.000000 6.981130 -0.031664 6.981202 0.827248
855.000000 75.000000 6.996793 -0.030146 6.996858 0.831116
870.000000 75.000000 6.991167 -0.014000 6.991181 0.853541
885.000000 75.000000 6.994386 -0.014308 6.994401 0.861627
900.000000 75.000000 6.985933 -0.018438 6.985957 0.843100
915.000000 75.000000 6.992012 -0.006572 6.992015 0.848210
930.000000 75.000000 6.987265 0.009761 6.987272 0.851670
945.000000 75.000000 6.984695 0.023132 6.984733 0.888032
960.000000 75.000000 6.996824 0.018538 6.996848 0.895834
975.000000 75.000000 6.996270 0.016534 6.996289 0.876768
990.000000 75.000000 6.985093 0.022101 6.985128 0.850010
1005.000000 75.000000 6.952461 0.032257 6.952536 0.845224
1020.000000 75.000000 6.940765 0.050656 6.940950 0.846006
1035.000000 75.000000 6.952579 0.061574 6.952851 0.829170
1050.000000 75.000000 6.960042 0.057475 6.960280 0.813015
1065.000000 75.000000 6.974439 0.091173 6.975035 0.812979
1080.000000 75.000000 6.984449 0.090802 6.985039 0.820696
1095.000000 75.000000 6.978650 0.069428 6.978995 0.810446
1110.000000 75.000000 6.967814 0.081099 6.968286 0.793943
1125.000000 75.000000 6.926169 0.100967 6.926905 0.777315
1140.000000 75.000000 6.938135 0.083078 6.938632 0.774211
1155.000000 75.000000 6.929653 0.074078 6.930049 0.749234
1170.000000 75.000000 6.919649 0.121507 6.920716 0.781318
1185.000000 75.000000 6.940413 0.105942 6.941222 0.794463
1200.000000 75.000000 6.941098 0.085561 6.941625 0.781789
1215.000000 75.000000 6.954317 0.116784 6.955298 0.741231
1230.000000 75.000000 6.960296 0.116625 6.961273 0.753538
1245.000000 75.000000 6.938407 0.121299 6.939468 0.804528
1260.000000 75.000000 6.929554 0.116509 6.930533 0.794013
1275.000000 75.000000 6.921981 0.146292 6.923527 0.777382
1290.000000 75.000000 6.924713 0.134393 6.926017 0.754544
1305.000000 75.000000 6.935366 0.132946 6.936640 0.772627
1320.000000 75.000000 6.924906 0.124999 6.926034 0.757763
1335.000000 75.000000 6.931779 0.131131 6.933020 0.733404
1350.000000 75.000000 6.900130 0.164477 6.902090 0.700707
1365.000000 75.000000 6.898881 0.110971 6.899773 0.739344
1380.000000 75.000000 6.899417 0.143980 6.900919 0.694046
1395.000000 75.000000 6.886820 0.152804 6.888515 0.662556
1410.000000 75.000000 6.852901 0.107628 6.853746 0.652302
1425.000000 75.000000 6.833820 0.104207 6.834614 0.619225
1440.000000 75.000000 6.879322 0.105958 6.880138 0.651878
1455.000000 75.000000 6.856931 0.120896 6.857996 0.642642
1470.000000 75.000000 6.862438 0.118020 6.863453 0.641074
1485.000000 75.000000 6.844034 0.118607 6.845062 0.610572
1500.000000 75.000000 6.805394 0.169332 6.807500 0.572278
1515.000000 75.000000 6.783252 0.127648 6.784453 0.579691
1530.000000 75.000000 6.809432 0.105220 6.810245 0.592652
1545.000000 75.000000 6.817963 0.168569 6.820046 0.565601