TITLE = "B00002"
VARIABLES = "x", "y", "Vx", "Vy", "isValid"
ZONE T="Frame 0", I=101, J=78, F=POINT
-22.466248095 43.7437463403 0 -0 0
-20.5643441081 43.7437463403 0 -0 0
-18.6624401212 43.7437463403 0 -0 0
-16.7605361342 43.7437463403 0 -0 0
-14.8586321473 43.7437463403 0 -0 0
-12.9567281604 43.7437463403 0 -0 0
-11.0548241735 43.7437463403 0 -0 0
-9.1529201865 43.7437463403 0 -0 0
-7.2510161996 43.7437463403 0 -0 0
-5.3491122127 43.7437463403 0 -0 0
-3.4472082257 43.7437463403 0 -0 0
-1.5453042388 43.7437463403 0 -0 0
0.3565997481 43.7437463403 0 -0 0
2.2585037351 43.7437463403 0 -0 0
4.160407722 43.7437463403 0 -0 0
6.0623117089 43.7437463403 0 -0 0
7.9642156959 43.7437463403 0 -0 0
9.8661196828 43.7437463403 0 -0 0
11.7680236697 43.7437463403 0 -0 0
13.6699276567 43.7437463403 0 -0 0
15.5718316436 43.7437463403 0 -0 0
17.4737356305 43.7437463403 0 -0 0
19.3756396174 43.7437463403 0 -0 0
21.2775436044 43.7437463403 0 -0 0
23.1794475913 43.7437463403 0 -0 0
25.0813515782 43.7437463403 0 -0 0
26.9832555652 43.7437463403 0 -0 0
28.8851595521 43.7437463403 0 -0 0
30.787063539 43.7437463403 0 -0 0
32.688967526 43.7437463403 0 -0 0
34.5908715129 43.7437463403 0 -0 0
36.4927754998 43.7437463403 0 -0 0
38.3946794868 43.7437463403 0 -0 0
40.2965834737 43.7437463403 0 -0 0
42.1984874606 43.7437463403 0 -0 0
44.1003914475 43.7437463403 0 -0 0
46.0022954345 43.7437463403 0 -0 0
47.9041994214 43.7437463403 0 -0 0
49.8061034083 43.7437463403 0 -0 0
51.7080073953 43.7437463403 0 -0 0
53.6099113822 43.7437463403 0 -0 0
55.5118153691 43.7437463403 0 -0 0
57.4137193561 43.7437463403 0 -0 0
59.315623343 43.7437463403 0 -0 0
61.2175273299 43.7437463403 0 -0 0
63.1194313169 43.7437463403 0 -0 0
65.0213353038 43.7437463403 0 -0 0
66.9232392907 43.7437463403 0 -0 0
68.8251432776 43.7437463403 0 -0 0
70.7270472646 43.7437463403 0 -0 0
72.6289512515 43.7437463403 0 -0 0
74.5308552384 43.7437463403 0 -0 0
76.4327592254 43.7437463403 0 -0 0
78.3346632123 43.7437463403 0 -0 0
80.2365671992 43.7437463403 0 -0 0
82.1384711862 43.7437463403 0 -0 0
84.0403751731 43.7437463403 0 -0 0
85.94227916 43.7437463403 0 -0 0
87.844183147 43.7437463403 0 -0 0
89.7460871339 43.7437463403 0 -0 0
91.6479911208 43.7437463403 0 -0 0
93.5498951077 43.7437463403 0 -0 0
95.4517990947 43.7437463403 0 -0 0
97.3537030816 43.7437463403 0 -0 0
99.2556070685 43.7437463403 0 -0 0
101.1575110555 43.7437463403 0 -0 0
103.0594150424 43.7437463403 0 -0 0
104.9613190293 43.7437463403 0 -0 0
106.8632230163 43.7437463403 0 -0 0
108.7651270032 43.7437463403 0 -0 0
110.6670309901 43.7437463403 0 -0 0
112.5689349771 43.7437463403 0 -0 0
114.470838964 43.7437463403 0 -0 0
116.3727429509 43.7437463403 0 -0 0
118.2746469378 43.7437463403 0 -0 0
120.1765509248 43.7437463403 0 -0 0
122.0784549117 43.7437463403 0 -0 0
123.9803588986 43.7437463403 0 -0 0
125.8822628856 43.7437463403 0 -0 0
127.7841668725 43.7437463403 0 -0 0
129.6860708594 43.7437463403 0 -0 0
131.5879748464 43.7437463403 0 -0 0
133.4898788333 43.7437463403 0 -0 0
135.3917828202 43.7437463403 0 -0 0
137.2936868072 43.7437463403 0 -0 0
139.1955907941 43.7437463403 0 -0 0
141.097494781 43.7437463403 0 -0 0
142.9993987679 43.7437463403 0 -0 0
144.9013027549 43.7437463403 0 -0 0
146.8032067418 43.7437463403 0 -0 0
148.7051107287 43.7437463403 0 -0 0
150.6070147157 43.7437463403 0 -0 0
152.5089187026 43.7437463403 0 -0 0
154.4108226895 43.7437463403 0 -0 0
156.3127266765 43.7437463403 0 -0 0
158.2146306634 43.7437463403 0 -0 0
160.1165346503 43.7437463403 0 -0 0
162.0184386373 43.7437463403 0 -0 0
163.9203426242 43.7437463403 0 -0 0
165.8222466111 43.7437463403 0 -0 0
167.724150598 43.7437463403 0 -0 0
-22.466248095 41.8418423533 0 -0 0
-20.5643441081 41.8418423533 9.4214995916 0.3463492933 1
-18.6624401212 41.8418423533 9.3865778405 0.0657205366 1
-16.7605361342 41.8418423533 9.4357117877 0.4156554899 1
-14.8586321473 41.8418423533 9.3794965889 0.6038071389 1
-12.9567281604 41.8418423533 9.3377203106 0.332337422 1
-11.0548241735 41.8418423533 9.2025957443 0.4123415884 1
-9.1529201865 41.8418423533 9.138737142 0.2300971941 1
-7.2510161996 41.8418423533 9.2611278788 0.1632772 1
-5.3491122127 41.8418423533 9.0194025243 0.3459828074 1
-3.4472082257 41.8418423533 0 -0 0
-1.5453042388 41.8418423533 0 -0 0
0.3565997481 41.8418423533 0 -0 0
2.2585037351 41.8418423533 0 -0 0
4.160407722 41.8418423533 0 -0 0
6.0623117089 41.8418423533 0 -0 0
7.9642156959 41.8418423533 0 -0 0
9.8661196828 41.8418423533 0 -0 0
11.7680236697 41.8418423533 0 -0 0
13.6699276567 41.8418423533 0 -0 0
15.5718316436 41.8418423533 0 -0 0
17.4737356305 41.8418423533 0 -0 0
19.3756396174 41.8418423533 9.6167868438 0.862875348 1
21.2775436044 41.8418423533 9.6128704147 0.7606987892 1
23.1794475913 41.8418423533 9.5702586729 0.6393174413 1
25.0813515782 41.8418423533 9.160108235 0.8656798963 1
26.9832555652 41.8418423533 9.5653204317 0.9043099871 1
28.8851595521 41.8418423533 9.8108752525 0.6780702116 1
30.787063539 41.8418423533 9.3884351161 0.6798591594 1
32.688967526 41.8418423533 9.8067724748 0.7927709577 1
34.5908715129 41.8418423533 9.6780241406 0.9668051378 1
36.4927754998 41.8418423533 9.8809827487 0.7708019959 1
38.3946794868 41.8418423533 9.7017245926 0.9158014918 1
40.2965834737 41.8418423533 9.847194619 0.8547241442 1
42.1984874606 41.8418423533 9.5529872519 0.8394419959 1
44.1003914475 41.8418423533 9.8443900707 0.8985223062 1
46.0022954345 41.8418423533 9.8355944109 1.2200654784 1
47.9041994214 41.8418423533 9.7082343748 0.7866618253 1
49.8061034083 41.8418423533 9.9094071409 0.9845781475 1
51.7080073953 41.8418423533 9.9541308349 0.8832059939 1
53.6099113822 41.8418423533 9.6692471157 0.6486224543 1
55.5118153691 41.8418423533 10.1632296335 0.6996245475 1
57.4137193561 41.8418423533 10.2427756925 0.7462629746 1
59.315623343 41.8418423533 10.1215247888 0.775345799 1
61.2175273299 41.8418423533 10.1393894199 0.5954975386 1
63.1194313169 41.8418423533 10.2858191422 0.8205602113 1
65.0213353038 41.8418423533 10.3717103754 0.8292067921 1
66.9232392907 41.8418423533 10.2736629937 0.7705830362 1
68.8251432776 41.8418423533 10.4956353834 0.7652379336 1
70.7270472646 41.8418423533 10.5878376267 0.8257344942 1
72.6289512515 41.8418423533 10.3369998196 0.8724164028 1
74.5308552384 41.8418423533 10.0911965338 0.5826736405 1
76.4327592254 41.8418423533 10.3112277909 0.6185721695 1
78.3346632123 41.8418423533 10.3042490311 0.4796507479 1
80.2365671992 41.8418423533 10.4308978363 0.3040046513 1
82.1384711862 41.8418423533 10.8262304448 0.6182382947 1
84.0403751731 41.8418423533 10.3808259339 0.1847989248 1
85.94227916 41.8418423533 10.7455973515 1.0701789872 1
87.844183147 41.8418423533 10.9785705275 0.423289576 1
89.7460871339 41.8418423533 10.6956652106 0.5230637892 1
91.6479911208 41.8418423533 10.7646918842 0.7760026782 1
93.5498951077 41.8418423533 0 -0 0
95.4517990947 41.8418423533 0 -0 0
97.3537030816 41.8418423533 0 -0 0
99.2556070685 41.8418423533 0 -0 0
101.1575110555 41.8418423533 0 -0 0
103.0594150424 41.8418423533 10.5961332508 0.1761088626 1
104.9613190293 41.8418423533 10.5148665718 0.324139631 1
106.8632230163 41.8418423533 10.6465840623 0.3711631789 1
108.7651270032 41.8418423533 10.5673299495 0.2749466735 1
110.6670309901 41.8418423533 10.6662190063 0.2065970669 1
112.5689349771 41.8418423533 10.5878531558 0.2924013374 1
114.470838964 41.8418423533 10.5945120169 0.3556558592 1
116.3727429509 41.8418423533 10.6300953059 0.4388295068 1
118.2746469378 41.8418423533 10.7853703811 0.1247030139 1
120.1765509248 41.8418423533 10.6768626243 -0.233634714 1
122.0784549117 41.8418423533 10.6906089486 -0.2741997256 1
123.9803588986 41.8418423533 10.7093369954 -0.1264127634 1
125.8822628856 41.8418423533 10.5586678396 -0.7109949255 1
127.7841668725 41.8418423533 10.4829698817 -0.4063846408 1
129.6860708594 41.8418423533 10.4599123328 -0.116272287 1
131.5879748464 41.8418423533 10.456983552 -0.6341912985 1
133.4898788333 41.8418423533 10.4704255067 -0.4428499805 1
135.3917828202 41.8418423533 10.304416745 -0.5459349894 1
137.2936868072 41.8418423533 10.3726949178 -0.7463483845 1
139.1955907941 41.8418423533 10.3886898501 -0.6755436335 1
141.097494781 41.8418423533 10.376543019 -0.4901406282 1
142.9993987679 41.8418423533 10.3871773196 -0.5289539618 1
144.9013027549 41.8418423533 10.3126098773 -0.5067939926 1
146.8032067418 41.8418423533 10.4194373897 -0.613755055 1
148.7051107287 41.8418423533 10.440438891 -0.6563497148 1
150.6070147157 41.8418423533 10.3600232045 -0.7084900881 1
152.5089187026 41.8418423533 10.34862798 -0.7324545341 1
154.4108226895 41.8418423533 10.241710399 -0.5483932397 1
156.3127266765 41.8418423533 10.1699133411 -0.1961770674 1
158.2146306634 41.8418423533 10.1614934845 -0.3875121737 1
160.1165346503 41.8418423533 10.18017805 -0.4675303162 1
162.0184386373 41.8418423533 10.086516075 -0.3022048332 1
163.9203426242 41.8418423533 10.0367640712 -0.277599037 1
165.8222466111 41.8418423533 10.0625329941 -0.3503635554 1
167.724150598 41.8418423533 0 -0 0
-22.466248095 39.9399383664 0 -0 0
-20.5643441081 39.9399383664 9.2026423314 0.3348935054 1
-18.6624401212 39.9399383664 9.3560135438 0.1064781086 1
-16.7605361342 39.9399383664 9.2661127072 0.1950356814 1
-14.8586321473 39.9399383664 9.347960173 0.6008193476 1
-12.9567281604 39.9399383664 9.2318524941 0.3960842151 1
-11.0548241735 39.9399383664 9.075005878 0.3369107303 1
-9.1529201865 39.9399383664 9.0899945272 0.400266191 1
-7.2510161996 39.9399383664 9.2552175184 0.0116964883 1
-5.3491122127 39.9399383664 9.2118417468 0.2228994745 1
-3.4472082257 39.9399383664 0 -0 0
-1.5453042388 39.9399383664 0 -0 0
0.3565997481 39.9399383664 0 -0 0
2.2585037351 39.9399383664 0 -0 0
4.160407722 39.9399383664 0 -0 0
6.0623117089 39.9399383664 0 -0 0
7.9642156959 39.9399383664 0 -0 0
9.8661196828 39.9399383664 0 -0 0
11.7680236697 39.9399383664 0 -0 0
13.6699276567 39.9399383664 0 -0 0
15.5718316436 39.9399383664 0 -0 0
17.4737356305 39.9399383664 0 -0 0
19.3756396174 39.9399383664 9.7895072654 0.8233709712 1
21.2775436044 39.9399383664 9.3884226929 0.7185373902 1
23.1794475913 39.9399383664 9.2782533266 0.6469127048 1
25.0813515782 39.9399383664 9.191278165 0.7526283365 1
26.9832555652 39.9399383664 9.4586388925 0.9836992026 1
28.8851595521 39.9399383664 9.6617372621 0.8397712119 1
30.787063539 39.9399383664 9.9660478359 0.9741208782 1
32.688967526 39.9399383664 9.5740384463 0.7226106627 1
34.5908715129 39.9399383664 9.4835071298 0.9852490029 1
36.4927754998 39.9399383664 9.9008382054 0.9663051021 1
38.3946794868 39.9399383664 9.833774405 0.918259742 1
40.2965834737 39.9399383664 9.7987998551 0.8249099011 1
42.1984874606 39.9399383664 9.8315661726 1.0630278549 1
44.1003914475 39.9399383664 9.6305735436 1.1015461363 1
46.0022954345 39.9399383664 9.5178170359 1.0196862473 1
47.9041994214 39.9399383664 9.4408674357 0.6924283809 1
49.8061034083 39.9399383664 9.9056056269 0.9435845338 1
51.7080073953 39.9399383664 10.0207877738 0.942820504 1
53.6099113822 39.9399383664 10.0099640187 0.8656550499 1
55.5118153691 39.9399383664 10.2862663792 0.7799486125 1
57.4137193561 39.9399383664 10.1061448073 0.8235355793 1
59.315623343 39.9399383664 10.2030554618 0.7539203543 1
61.2175273299 39.9399383664 10.2123263109 0.4534144003 1
63.1194313169 39.9399383664 10.2804895687 0.6238846611 1
65.0213353038 39.9399383664 10.3485441231 0.8953419547 1
66.9232392907 39.9399383664 10.3361581445 0.8293714002 1
68.8251432776 39.9399383664 10.5767063962 0.858941837 1
70.7270472646 39.9399383664 10.610789578 0.7728735726 1
72.6289512515 39.9399383664 10.672123155 0.7939294256 1
74.5308552384 39.9399383664 10.0235923222 0.5935113718 1
76.4327592254 39.9399383664 10.4226705401 0.6469049402 1
78.3346632123 39.9399383664 10.6483295287 0.71363176 1
80.2365671992 39.9399383664 10.569255553 0.6827382472 1
82.1384711862 39.9399383664 10.6730735335 0.9527140684 1
84.0403751731 39.9399383664 10.5738148851 0.7040627529 1
85.94227916 39.9399383664 10.270336669 0.7130323382 1
87.844183147 39.9399383664 10.6846861649 0.7284930708 1
89.7460871339 39.9399383664 10.7544551276 0.6208627059 1
91.6479911208 39.9399383664 10.7024420926 0.6382785472 1
93.5498951077 39.9399383664 10.488551026 -0.0254723178 1
95.4517990947 39.9399383664 0 -0 0
97.3537030816 39.9399383664 0 -0 0
99.2556070685 39.9399383664 0 -0 0
101.1575110555 39.9399383664 0 -0 0
103.0594150424 39.9399383664 10.6421800207 0.3804930384 1
104.9613190293 39.9399383664 10.6180354376 0.3720001953 1
106.8632230163 39.9399383664 10.7437897689 0.3059240432 1
108.7651270032 39.9399383664 10.7539426686 0.1630535815 1
110.6670309901 39.9399383664 10.6926898427 0.2811784854 1
112.5689349771 39.9399383664 10.7612102688 0.0945735309 1
114.470838964 39.9399383664 10.7498057269 0.4073443368 1
116.3727429509 39.9399383664 10.7953897308 0.2589781406 1
118.2746469378 39.9399383664 10.7101817763 0.2056156303 1
120.1765509248 39.9399383664 10.8648574297 0.1042326064 1
122.0784549117 39.9399383664 10.6750923114 -0.1237821406 1
123.9803588986 39.9399383664 10.8239259323 -0.0381238433 1
125.8822628856 39.9399383664 10.7559055418 -0.2145401813 1
127.7841668725 39.9399383664 10.6757880133 0.0913559095 1
129.6860708594 39.9399383664 10.6294586144 -0.0734058686 1
131.5879748464 39.9399383664 10.5240162942 0.0233262017 1
133.4898788333 39.9399383664 10.3104917134 -0.6817319641 1
135.3917828202 39.9399383664 10.4023647407 -0.5684676561 1
137.2936868072 39.9399383664 10.5364674948 -0.2778319729 1
139.1955907941 39.9399383664 10.5290974028 -0.6385192476 1
141.097494781 39.9399383664 10.3864008666 -0.4474139714 1
142.9993987679 39.9399383664 10.3024414485 -0.461188248 1
144.9013027549 39.9399383664 10.2840612526 -0.5128270326 1
146.8032067418 39.9399383664 10.3643247543 -0.707218258 1
148.7051107287 39.9399383664 10.4596452329 -0.6673613715 1
150.6070147157 39.9399383664 10.3895191019 -0.76716509 1
152.5089187026 39.9399383664 10.5483254854 -0.7977278338 1
154.4108226895 39.9399383664 10.3589641226 -0.5475251652 1
156.3127266765 39.9399383664 10.2292964681 -0.6171621308 1
158.2146306634 39.9399383664 10.3233994684 -0.4148246852 1
160.1165346503 39.9399383664 10.1434611395 -0.5988751093 1
162.0184386373 39.9399383664 10.1111948578 -0.4313708991 1
163.9203426242 39.9399383664 10.02207358 -0.2857781931 1
165.8222466111 39.9399383664 9.9415398727 -0.3149091575 1
167.724150598 39.9399383664 0 -0 0
-22.466248095 38.0380343795 0 -0 0
-20.5643441081 38.0380343795 9.2502637481 0.1246129453 1
-18.6624401212 38.0380343795 9.2957142022 0.2820915941 1
-16.7605361342 38.0380343795 9.1500826735 0.2557030618 1
-14.8586321473 38.0380343795 9.1638289978 0.3984601613 1
-12.9567281604 38.0380343795 9.2078973655 0.2364346036 1
-11.0548241735 38.0380343795 9.1754726873 0.1314302029 1
-9.1529201865 38.0380343795 9.1783610926 0.2192625686 1
-7.2510161996 38.0380343795 9.250894228 0.111428773 1
-5.3491122127 38.0380343795 9.0776613474 0.5524214779 1
-3.4472082257 38.0380343795 0 -0 0
-1.5453042388 38.0380343795 0 -0 0
0.3565997481 38.0380343795 0 -0 0
2.2585037351 38.0380343795 0 -0 0
4.160407722 38.0380343795 0 -0 0
6.0623117089 38.0380343795 0 -0 0
7.9642156959 38.0380343795 0 -0 0
9.8661196828 38.0380343795 0 -0 0
11.7680236697 38.0380343795 0 -0 0
13.6699276567 38.0380343795 0 -0 0
15.5718316436 38.0380343795 0 -0 0
17.4737356305 38.0380343795 0 -0 0
19.3756396174 38.0380343795 9.5441139468 0.7842610326 1
21.2775436044 38.0380343795 9.5206060552 0.7596831886 1
23.1794475913 38.0380343795 9.400370752 0.7501219461 1
25.0813515782 38.0380343795 9.409163306 0.7785494441 1
26.9832555652 38.0380343795 9.4112255652 0.8681505699 1
28.8851595521 38.0380343795 9.6817511151 0.9050522761 1
30.787063539 38.0380343795 9.7339877686 0.8297534151 1
32.688967526 38.0380343795 9.4950607508 0.7703904758 1
34.5908715129 38.0380343795 9.3040067204 1.0004224478 1
36.4927754998 38.0380343795 9.6567182697 1.0428711345 1
38.3946794868 38.0380343795 9.6060003584 1.0304059577 1
40.2965834737 38.0380343795 9.5488968974 0.8979865536 1
42.1984874606 38.0380343795 9.8096857265 1.1417027337 1
44.1003914475 38.0380343795 9.9137242197 0.99827012 1
46.0022954345 38.0380343795 9.7816309259 1.0546064454 1
47.9041994214 38.0380343795 9.6693309726 0.8526152978 1
49.8061034083 38.0380343795 10.0820281765 0.7285287876 1
51.7080073953 38.0380343795 10.1919894534 0.9528709119 1
53.6099113822 38.0380343795 9.875656281 0.9031592837 1
55.5118153691 38.0380343795 10.0405127864 0.8931337223 1
57.4137193561 38.0380343795 10.2013410535 0.9675427682 1
59.315623343 38.0380343795 10.0980417436 0.6381449973 1
61.2175273299 38.0380343795 10.0606912475 0.5916867072 1
63.1194313169 38.0380343795 10.0440596238 0.7709852388 1
65.0213353038 38.0380343795 10.2064842783 0.8484084754 1
66.9232392907 38.0380343795 9.955236504 0.7439833086 1
68.8251432776 38.0380343795 10.4482841723 0.7750926753 1
70.7270472646 38.0380343795 10.5198141304 0.7614876655 1
72.6289512515 38.0380343795 10.4322147006 1.0818304412 1
74.5308552384 38.0380343795 10.2470430784 0.9060539005 1
76.4327592254 38.0380343795 10.421316406 0.7924029189 1
78.3346632123 38.0380343795 10.6565350842 0.7695022135 1
80.2365671992 38.0380343795 10.5279606755 0.5940440186 1
82.1384711862 38.0380343795 10.5099531771 0.6588405761 1
84.0403751731 38.0380343795 10.6206753779 0.6221547238 1
85.94227916 38.0380343795 10.5252896771 0.7301841855 1
87.844183147 38.0380343795 10.5178015642 0.2627253029 1
89.7460871339 38.0380343795 10.6452143991 0.9533957941 1
91.6479911208 38.0380343795 10.6284399081 0.4702246082 1
93.5498951077 38.0380343795 10.6550194479 0.6242744405 1
95.4517990947 38.0380343795 0 -0 0
97.3537030816 38.0380343795 0 -0 0
99.2556070685 38.0380343795 0 -0 0
101.1575110555 38.0380343795 0 -0 0
103.0594150424 38.0380343795 10.7585610111 0.5557276149 1
104.9613190293 38.0380343795 10.7007432134 0.0560692256 1
106.8632230163 38.0380343795 10.7297608157 0.0899815877 1
108.7651270032 38.0380343795 10.7346183058 0.2698997288 1
110.6670309901 38.0380343795 10.7780810401 0.3080717122 1
112.5689349771 38.0380343795 10.946962678 0.0185215104 1
114.470838964 38.0380343795 10.8048189763 0.3555626848 1
116.3727429509 38.0380343795 10.9927889353 -0.0308096559 1
118.2746469378 38.0380343795 10.7377582818 0.208926426 1
120.1765509248 38.0380343795 10.8597017817 0.2826521932 1
122.0784549117 38.0380343795 10.7293819066 0.1203999112 1
123.9803588986 38.0380343795 10.7717576067 0.1118138937 1
125.8822628856 38.0380343795 10.854903302 -0.3715793577 1
127.7841668725 38.0380343795 10.6875466178 0.027088893 1
129.6860708594 38.0380343795 10.5569875953 -0.0223106011 1
131.5879748464 38.0380343795 10.5523847818 -0.2909850871 1
133.4898788333 38.0380343795 10.0377858834 -0.8525236764 1
135.3917828202 38.0380343795 10.5138074899 -0.6566758251 1
137.2936868072 38.0380343795 10.5318771046 -0.3325874399 1
139.1955907941 38.0380343795 10.1806128637 -0.9141926811 1
141.097494781 38.0380343795 10.6256105133 -0.1896688382 1
142.9993987679 38.0380343795 10.4043555662 -0.6328418231 1
144.9013027549 38.0380343795 10.3343226095 -0.5456709954 1
146.8032067418 38.0380343795 10.4309288944 -0.8298683301 1
148.7051107287 38.0380343795 10.4419079401 -0.7681620556 1
150.6070147157 38.0380343795 10.3023855439 -0.6149306048 1
152.5089187026 38.0380343795 10.5169598891 -0.5440171504 1
154.4108226895 38.0380343795 10.2798342423 -0.5120226273 1
156.3127266765 38.0380343795 10.3772169802 -0.7147746988 1
158.2146306634 38.0380343795 10.301689842 -0.5315612911 1
160.1165346503 38.0380343795 10.2223021793 -0.6151014245 1
162.0184386373 38.0380343795 10.2071986151 -0.5093143591 1
163.9203426242 38.0380343795 10.1154808785 -0.4550340813 1
165.8222466111 38.0380343795 9.9914130032 -0.3036723294 1
167.724150598 38.0380343795 0 -0 0
-22.466248095 36.1361303926 0 -0 0
-20.5643441081 36.1361303926 0 -0 0
-18.6624401212 36.1361303926 9.0050350376 -0.2856291141 1
-16.7605361342 36.1361303926 9.1965331991 0.1361122146 1
-14.8586321473 36.1361303926 9.2112205844 0.3989167157 1
-12.9567281604 36.1361303926 9.0617067907 0.3052951162 1
-11.0548241735 36.1361303926 9.1477533145 0.0864021393 1
-9.1529201865 36.1361303926 9.0907492395 0.0920624818 1
-7.2510161996 36.1361303926 9.1626239427 0.3328529868 1
-5.3491122127 36.1361303926 9.0241885807 0.4695056127 1
-3.4472082257 36.1361303926 0 -0 0
-1.5453042388 36.1361303926 0 -0 0
0.3565997481 36.1361303926 0 -0 0
2.2585037351 36.1361303926 0 -0 0
4.160407722 36.1361303926 0 -0 0
6.0623117089 36.1361303926 0 -0 0
7.9642156959 36.1361303926 0 -0 0
9.8661196828 36.1361303926 0 -0 0
11.7680236697 36.1361303926 0 -0 0
13.6699276567 36.1361303926 0 -0 0
15.5718316436 36.1361303926 0 -0 0
17.4737356305 36.1361303926 0 -0 0
19.3756396174 36.1361303926 9.435292503 0.6254872601 1
21.2775436044 36.1361303926 9.5700133138 0.6324287501 1
23.1794475913 36.1361303926 9.6926680446 0.698756473 1
25.0813515782 36.1361303926 9.5161647439 0.5726744785 1
26.9832555652 36.1361303926 9.4074085221 0.693947123 1
28.8851595521 36.1361303926 9.4895137704 0.7542930518 1
30.787063539 36.1361303926 9.6227065216 0.9032105296 1
32.688967526 36.1361303926 9.5749795073 0.9056470392 1
34.5908715129 36.1361303926 9.395081554 0.9232166181 1
36.4927754998 36.1361303926 9.5897538554 0.9061750272 1
38.3946794868 36.1361303926 9.7812302762 0.9597906612 1
40.2965834737 36.1361303926 9.6418755938 0.9202474618 1
42.1984874606 36.1361303926 9.7912775783 1.0017004895 1
44.1003914475 36.1361303926 9.9295514381 1.0016973837 1
46.0022954345 36.1361303926 9.8938656572 1.0588489847 1
47.9041994214 36.1361303926 9.9498541317 0.9463021193 1
49.8061034083 36.1361303926 10.1125427802 0.7881914378 1
51.7080073953 36.1361303926 10.049674932 1.0920703037 1
53.6099113822 36.1361303926 9.9328311756 0.9334005759 1
55.5118153691 36.1361303926 10.05546106 0.8314957756 1
57.4137193561 36.1361303926 10.0577873132 0.8411501925 1
59.315623343 36.1361303926 10.2883783314 0.7592592453 1
61.2175273299 36.1361303926 9.9585783578 0.8613069129 1
63.1194313169 36.1361303926 9.7394477862 0.7908997059 1
65.0213353038 36.1361303926 9.9685386972 0.6023349839 1
66.9232392907 36.1361303926 9.9851268395 0.7791845827 1
68.8251432776 36.1361303926 10.6031927616 0.6264345328 1
70.7270472646 36.1361303926 10.3551595028 0.9046469677 1
72.6289512515 36.1361303926 10.437298915 0.9137733965 1
74.5308552384 36.1361303926 10.3210297338 0.7534637999 1
76.4327592254 36.1361303926 10.3100879578 0.6826543902 1
78.3346632123 36.1361303926 10.6216692377 0.6648037353 1
80.2365671992 36.1361303926 10.3624861135 0.3976091688 1
82.1384711862 36.1361303926 10.4575394923 0.4323756293 1
84.0403751731 36.1361303926 10.6604142435 0.7865686509 1
85.94227916 36.1361303926 10.551108293 0.6593778816 1
87.844183147 36.1361303926 10.3300614354 0.4135839133 1
89.7460871339 36.1361303926 10.8271715059 0.9029931227 1
91.6479911208 36.1361303926 10.7006873088 0.6578870918 1
93.5498951077 36.1361303926 10.7690369153 0.7219677596 1
95.4517990947 36.1361303926 0 -0 0
97.3537030816 36.1361303926 0 -0 0
99.2556070685 36.1361303926 0 -0 0
101.1575110555 36.1361303926 0 -0 0
103.0594150424 36.1361303926 10.8306717561 0.3840585107 1
104.9613190293 36.1361303926 10.7346089884 0.257665935 1
106.8632230163 36.1361303926 10.8051575098 0.0987989882 1
108.7651270032 36.1361303926 10.8638356175 0.2152156955 1
110.6670309901 36.1361303926 10.8933315149 0.2307742611 1
112.5689349771 36.1361303926 11.0088459837 0.1160486685 1
114.470838964 36.1361303926 10.7018923639 0.0889209529 1
116.3727429509 36.1361303926 10.9214888073 0.0367029343 1
118.2746469378 36.1361303926 10.9446053666 -0.2555369008 1
120.1765509248 36.1361303926 10.9318932777 -0.0725641935 1
122.0784549117 36.1361303926 10.8179534556 -0.0934010868 1
123.9803588986 36.1361303926 10.6584513702 0.2853511439 1
125.8822628856 36.1361303926 10.7877245866 -0.5473046525 1
127.7841668725 36.1361303926 10.6526994063 -0.2703718123 1
129.6860708594 36.1361303926 10.6174888147 -0.118469649 1
131.5879748464 36.1361303926 10.7466502218 -0.6103324501 1
133.4898788333 36.1361303926 10.7308851197 -0.5643974893 1
135.3917828202 36.1361303926 10.7431282309 -0.3886768532 1
137.2936868072 36.1361303926 10.4280963938 -0.8417465084 1
139.1955907941 36.1361303926 10.468801167 -0.7838929938 1
141.097494781 36.1361303926 10.7227416804 -0.1010134322 1
142.9993987679 36.1361303926 10.5218484374 -0.6928631946 1
144.9013027549 36.1361303926 10.5524996968 -0.7306360811 1
146.8032067418 36.1361303926 10.4936849334 -0.7904043289 1
148.7051107287 36.1361303926 10.6189858161 -0.7959357802 1
150.6070147157 36.1361303926 10.3334188182 -0.5302273448 1
152.5089187026 36.1361303926 10.1555893357 -0.4882336596 1
154.4108226895 36.1361303926 10.2055059475 -0.4158868729 1
156.3127266765 36.1361303926 10.264848699 -0.5706106664 1
158.2146306634 36.1361303926 10.1876444222 -0.5516201784 1
160.1165346503 36.1361303926 10.2067575898 -0.7281809367 1
162.0184386373 36.1361303926 10.1880109081 -0.5875528713 1
163.9203426242 36.1361303926 10.111902983 -0.563659859 1
165.8222466111 36.1361303926 10.0263906588 -0.4671684891 1
167.724150598 36.1361303926 0 -0 0
-22.466248095 34.2342264056 0 -0 0
-20.5643441081 34.2342264056 9.270495008 0.1017960969 1
-18.6624401212 34.2342264056 9.2174322086 0.2200607623 1
-16.7605361342 34.2342264056 9.2646622929 0.1764272083 1
-14.8586321473 34.2342264056 9.2094844355 0.1698242518 1
-12.9567281604 34.2342264056 9.0869943127 0.1882929634 1
-11.0548241735 34.2342264056 9.086394891 0.3143625346 1
-9.1529201865 34.2342264056 8.9996588769 0.3795892471 1
-7.2510161996 34.2342264056 9.0710677083 0.099314553 1
-5.3491122127 34.2342264056 9.054131715 0.3218490946 1
-3.4472082257 34.2342264056 8.885632092 0.6458784694 1
-1.5453042388 34.2342264056 0 -0 0
0.3565997481 34.2342264056 0 -0 0
2.2585037351 34.2342264056 0 -0 0
4.160407722 34.2342264056 0 -0 0
6.0623117089 34.2342264056 0 -0 0
7.9642156959 34.2342264056 0 -0 0
9.8661196828 34.2342264056 0 -0 0
11.7680236697 34.2342264056 0 -0 0
13.6699276567 34.2342264056 0 -0 0
15.5718316436 34.2342264056 0 -0 0
17.4737356305 34.2342264056 0 -0 0
19.3756396174 34.2342264056 9.481702653 0.8392665175 1
21.2775436044 34.2342264056 9.4580643172 0.7122512265 1
23.1794475913 34.2342264056 9.5055397607 0.7542697582 1
25.0813515782 34.2342264056 9.3050440617 0.513646967 1
26.9832555652 34.2342264056 9.2751319855 0.8033633298 1
28.8851595521 34.2342264056 9.6788192285 0.7807141952 1
30.787063539 34.2342264056 9.3160634829 0.8776745426 1
32.688967526 34.2342264056 9.5201898763 0.9592611203 1
34.5908715129 34.2342264056 9.5206837005 0.8704364476 1
36.4927754998 34.2342264056 9.4114895592 0.9478814248 1
38.3946794868 34.2342264056 9.9438226446 1.0458107856 1
40.2965834737 34.2342264056 9.7476533417 0.887137952 1
42.1984874606 34.2342264056 9.729105432 0.9631402795 1
44.1003914475 34.2342264056 9.8394456179 1.0346407324 1
46.0022954345 34.2342264056 9.8224009212 0.9853996348 1
47.9041994214 34.2342264056 9.9845522643 0.9688441034 1
49.8061034083 34.2342264056 9.9255418347 1.1192756646 1
51.7080073953 34.2342264056 10.024899869 1.0011616311 1
53.6099113822 34.2342264056 10.0585296023 0.8587042424 1
55.5118153691 34.2342264056 10.1126825418 0.8511974946 1
57.4137193561 34.2342264056 10.0471995998 0.9202257211 1
59.315623343 34.2342264056 10.2755606449 0.9189337032 1
61.2175273299 34.2342264056 10.2845115953 1.0797588646 1
63.1194313169 34.2342264056 10.0554300018 0.8562335689 1
65.0213353038 34.2342264056 10.5134782738 0.9403203253 1
66.9232392907 34.2342264056 0 -0 0
68.8251432776 34.2342264056 10.4355254963 1.1561168076 1
70.7270472646 34.2342264056 10.5034682414 1.0791439138 1
72.6289512515 34.2342264056 10.1284476439 0.8006923314 1
74.5308552384 34.2342264056 10.0738505733 0.7238607521 1
76.4327592254 34.2342264056 10.259807966 0.6819912994 1
78.3346632123 34.2342264056 10.6987026948 0.815359529 1
80.2365671992 34.2342264056 10.3106407924 0.4110060892 1
82.1384711862 34.2342264056 10.3674895768 0.4556195269 1
84.0403751731 34.2342264056 10.6048326304 0.4812626644 1
85.94227916 34.2342264056 10.5286563774 0.5742351491 1
87.844183147 34.2342264056 10.3987154115 0.5389671 1
89.7460871339 34.2342264056 10.5533289486 0.552718083 1
91.6479911208 34.2342264056 10.8390729778 0.6167412933 1
93.5498951077 34.2342264056 10.6987617053 0.7037677008 1
95.4517990947 34.2342264056 0 -0 0
97.3537030816 34.2342264056 0 -0 0
99.2556070685 34.2342264056 0 -0 0
101.1575110555 34.2342264056 0 -0 0
103.0594150424 34.2342264056 10.9028943103 0.3536495046 1
104.9613190293 34.2342264056 10.7928305417 0.4835671769 1
106.8632230163 34.2342264056 10.7975172121 0.1629246903 1
108.7651270032 34.2342264056 10.8822499774 0.3427946913 1
110.6670309901 34.2342264056 10.8450112905 0.2743876273 1
112.5689349771 34.2342264056 10.8863807075 0.1300807275 1
114.470838964 34.2342264056 10.8594036237 -0.1004637035 1
116.3727429509 34.2342264056 10.7987999125 0.0722769059 1
118.2746469378 34.2342264056 10.8500706584 -0.0023697346 1
120.1765509248 34.2342264056 10.8551983541 -0.1164555299 1
122.0784549117 34.2342264056 10.8952105312 -0.1892278128 1
123.9803588986 34.2342264056 10.5715538539 0.1539985864 1
125.8822628856 34.2342264056 10.6681228691 -0.4726735411 1
127.7841668725 34.2342264056 10.6636473939 -0.669651908 1
129.6860708594 34.2342264056 10.7669280689 -0.4337421866 1
131.5879748464 34.2342264056 10.8726499122 -0.6326228634 1
133.4898788333 34.2342264056 10.7587846296 -0.5802744007 1
135.3917828202 34.2342264056 10.9301447055 -0.3805800011 1
137.2936868072 34.2342264056 10.4798858103 -0.77397303 1
139.1955907941 34.2342264056 10.5219913047 -0.8148594932 1
141.097494781 34.2342264056 10.742497751 -0.357642026 1
142.9993987679 34.2342264056 10.670206869 -0.7628961512 1
144.9013027549 34.2342264056 10.5431636257 -0.7837004335 1
146.8032067418 34.2342264056 10.5266779751 -0.8185134811 1
148.7051107287 34.2342264056 10.0325401668 -0.750966727 1
150.6070147157 34.2342264056 10.3135354093 -0.5127788925 1
152.5089187026 34.2342264056 10.1189624938 -0.4614382658 1