TITLE = "B00025"
VARIABLES = "x", "y", "Vx", "Vy", "isValid"
ZONE T="Frame 0", I=101, J=78, F=POINT
-22.466248095 43.7437463403 0 -0 0
-20.5643441081 43.7437463403 0 -0 0
-18.6624401212 43.7437463403 0 -0 0
-16.7605361342 43.7437463403 0 -0 0
-14.8586321473 43.7437463403 0 -0 0
-12.9567281604 43.7437463403 0 -0 0
-11.0548241735 43.7437463403 0 -0 0
-9.1529201865 43.7437463403 0 -0 0
-7.2510161996 43.7437463403 0 -0 0
-5.3491122127 43.7437463403 0 -0 0
-3.4472082257 43.7437463403 0 -0 0
-1.5453042388 43.7437463403 0 -0 0
0.3565997481 43.7437463403 0 -0 0
2.2585037351 43.7437463403 0 -0 0
4.160407722 43.7437463403 0 -0 0
6.0623117089 43.7437463403 0 -0 0
7.9642156959 43.7437463403 0 -0 0
9.8661196828 43.7437463403 0 -0 0
11.7680236697 43.7437463403 0 -0 0
13.6699276567 43.7437463403 0 -0 0
15.5718316436 43.7437463403 0 -0 0
17.4737356305 43.7437463403 0 -0 0
19.3756396174 43.7437463403 0 -0 0
21.2775436044 43.7437463403 0 -0 0
23.1794475913 43.7437463403 0 -0 0
25.0813515782 43.7437463403 0 -0 0
26.9832555652 43.7437463403 0 -0 0
28.8851595521 43.7437463403 0 -0 0
30.787063539 43.7437463403 0 -0 0
32.688967526 43.7437463403 0 -0 0
34.5908715129 43.7437463403 0 -0 0
36.4927754998 43.7437463403 0 -0 0
38.3946794868 43.7437463403 0 -0 0
40.2965834737 43.7437463403 0 -0 0
42.1984874606 43.7437463403 0 -0 0
44.1003914475 43.7437463403 0 -0 0
46.0022954345 43.7437463403 0 -0 0
47.9041994214 43.7437463403 0 -0 0
49.8061034083 43.7437463403 0 -0 0
51.7080073953 43.7437463403 0 -0 0
53.6099113822 43.7437463403 0 -0 0
55.5118153691 43.7437463403 0 -0 0
57.4137193561 43.7437463403 0 -0 0
59.315623343 43.7437463403 0 -0 0
61.2175273299 43.7437463403 0 -0 0
63.1194313169 43.7437463403 0 -0 0
65.0213353038 43.7437463403 0 -0 0
66.9232392907 43.7437463403 0 -0 0
68.8251432776 43.7437463403 0 -0 0
70.7270472646 43.7437463403 0 -0 0
72.6289512515 43.7437463403 0 -0 0
74.5308552384 43.7437463403 0 -0 0
76.4327592254 43.7437463403 0 -0 0
78.3346632123 43.7437463403 0 -0 0
80.2365671992 43.7437463403 0 -0 0
82.1384711862 43.7437463403 0 -0 0
84.0403751731 43.7437463403 0 -0 0
85.94227916 43.7437463403 0 -0 0
87.844183147 43.7437463403 0 -0 0
89.7460871339 43.7437463403 0 -0 0
91.6479911208 43.7437463403 0 -0 0
93.5498951077 43.7437463403 0 -0 0
95.4517990947 43.7437463403 0 -0 0
97.3537030816 43.7437463403 0 -0 0
99.2556070685 43.7437463403 0 -0 0
101.1575110555 43.7437463403 0 -0 0
103.0594150424 43.7437463403 0 -0 0
104.9613190293 43.7437463403 0 -0 0
106.8632230163 43.7437463403 0 -0 0
108.7651270032 43.7437463403 0 -0 0
110.6670309901 43.7437463403 0 -0 0
112.5689349771 43.7437463403 0 -0 0
114.470838964 43.7437463403 0 -0 0
116.3727429509 43.7437463403 0 -0 0
118.2746469378 43.7437463403 0 -0 0
120.1765509248 43.7437463403 0 -0 0
122.0784549117 43.7437463403 0 -0 0
123.9803588986 43.7437463403 0 -0 0
125.8822628856 43.7437463403 0 -0 0
127.7841668725 43.7437463403 0 -0 0
129.6860708594 43.7437463403 0 -0 0
131.5879748464 43.7437463403 0 -0 0
133.4898788333 43.7437463403 0 -0 0
135.3917828202 43.7437463403 0 -0 0
137.2936868072 43.7437463403 0 -0 0
139.1955907941 43.7437463403 0 -0 0
141.097494781 43.7437463403 0 -0 0
142.9993987679 43.7437463403 0 -0 0
144.9013027549 43.7437463403 0 -0 0
146.8032067418 43.7437463403 0 -0 0
148.7051107287 43.7437463403 0 -0 0
150.6070147157 43.7437463403 0 -0 0
152.5089187026 43.7437463403 0 -0 0
154.4108226895 43.7437463403 0 -0 0
156.3127266765 43.7437463403 0 -0 0
158.2146306634 43.7437463403 0 -0 0
160.1165346503 43.7437463403 0 -0 0
162.0184386373 43.7437463403 0 -0 0
163.9203426242 43.7437463403 0 -0 0
165.8222466111 43.7437463403 0 -0 0
167.724150598 43.7437463403 0 -0 0
-22.466248095 41.8418423533 0 -0 0
-20.5643441081 41.8418423533 9.4118964206 -0.095216434 1
-18.6624401212 41.8418423533 9.3675857996 0.3683306783 1
-16.7605361342 41.8418423533 9.3779343655 0.2448466956 1
-14.8586321473 41.8418423533 9.2272652096 0.1577209022 1
-12.9567281604 41.8418423533 9.3669553197 0.2970802433 1
-11.0548241735 41.8418423533 9.4778887158 0.0171580589 1
-9.1529201865 41.8418423533 9.2531304127 0.303399018 1
-7.2510161996 41.8418423533 9.4270496778 0.0009907541 1
-5.3491122127 41.8418423533 9.5163231403 0.0221040646 1
-3.4472082257 41.8418423533 0 -0 0
-1.5453042388 41.8418423533 0 -0 0
0.3565997481 41.8418423533 0 -0 0
2.2585037351 41.8418423533 0 -0 0
4.160407722 41.8418423533 0 -0 0
6.0623117089 41.8418423533 0 -0 0
7.9642156959 41.8418423533 0 -0 0
9.8661196828 41.8418423533 0 -0 0
11.7680236697 41.8418423533 0 -0 0
13.6699276567 41.8418423533 0 -0 0
15.5718316436 41.8418423533 0 -0 0
17.4737356305 41.8418423533 0 -0 0
19.3756396174 41.8418423533 9.6396797846 0.8239548639 1
21.2775436044 41.8418423533 9.6547460791 0.706243033 1
23.1794475913 41.8418423533 9.5809116084 0.6173935138 1
25.0813515782 41.8418423533 9.5974376345 0.4870022051 1
26.9832555652 41.8418423533 9.5232118315 0.8347615371 1
28.8851595521 41.8418423533 9.4917996481 1.0514866572 1
30.787063539 41.8418423533 9.3333193749 0.9371694789 1
32.688967526 41.8418423533 9.6913045931 0.7475348047 1
34.5908715129 41.8418423533 9.8825791361 0.6468940699 1
36.4927754998 41.8418423533 9.7656266763 0.9240660577 1
38.3946794868 41.8418423533 9.3157497959 0.8741913744 1
40.2965834737 41.8418423533 9.6520005412 0.9447600836 1
42.1984874606 41.8418423533 10.0833729932 0.8034968797 1
44.1003914475 41.8418423533 9.6697471514 0.8324678948 1
46.0022954345 41.8418423533 9.8636864812 0.7244989964 1
47.9041994214 41.8418423533 10.0306052458 0.8076710912 1
49.8061034083 41.8418423533 10.0961968912 0.8591685613 1
51.7080073953 41.8418423533 10.0865129692 0.7791706066 1
53.6099113822 41.8418423533 10.003149867 0.7877333305 1
55.5118153691 41.8418423533 10.0448640291 0.7440951178 1
57.4137193561 41.8418423533 10.2190876638 0.8639903346 1
59.315623343 41.8418423533 10.3096655674 0.9670473911 1
61.2175273299 41.8418423533 10.3827297967 0.8380754385 1
63.1194313169 41.8418423533 10.5866294658 0.8764679346 1
65.0213353038 41.8418423533 10.3360028539 0.6395239778 1
66.9232392907 41.8418423533 10.2626653131 0.6824463008 1
68.8251432776 41.8418423533 10.1268481507 0.7906885107 1
70.7270472646 41.8418423533 10.1727365242 0.6239716238 1
72.6289512515 41.8418423533 10.316184667 0.6603531066 1
74.5308552384 41.8418423533 10.5150808728 0.6724704324 1
76.4327592254 41.8418423533 10.3442674198 0.377607739 1
78.3346632123 41.8418423533 10.4530857578 0.1125887939 1
80.2365671992 41.8418423533 10.5668143847 0.6015103908 1
82.1384711862 41.8418423533 10.329604881 0.4574084747 1
84.0403751731 41.8418423533 10.3471558251 0.52458719 1
85.94227916 41.8418423533 11.3788227424 0.715134973 1
87.844183147 41.8418423533 10.8399829807 0.4106489208 1
89.7460871339 41.8418423533 10.7187413944 0.7986533658 1
91.6479911208 41.8418423533 10.2985094904 0.4779720565 1
93.5498951077 41.8418423533 0 -0 0
95.4517990947 41.8418423533 0 -0 0
97.3537030816 41.8418423533 0 -0 0
99.2556070685 41.8418423533 0 -0 0
101.1575110555 41.8418423533 0 -0 0
103.0594150424 41.8418423533 10.7388049405 0.5048419897 1
104.9613190293 41.8418423533 10.61402894 0.4331582939 1
106.8632230163 41.8418423533 10.7431779239 0.5379266529 1
108.7651270032 41.8418423533 10.6907642392 0.5028884339 1
110.6670309901 41.8418423533 10.7623625251 0.3478369772 1
112.5689349771 41.8418423533 10.7498523141 0.3395087421 1
114.470838964 41.8418423533 10.7837491471 0.2352761357 1
116.3727429509 41.8418423533 10.7938585655 0.1587178678 1
118.2746469378 41.8418423533 10.9145659521 0.2922072241 1
120.1765509248 41.8418423533 10.786395299 0.2543986207 1
122.0784549117 41.8418423533 10.8289511362 0.0374452234 1
123.9803588986 41.8418423533 10.8513409355 -0.1348217497 1
125.8822628856 41.8418423533 10.8939278308 -0.0760209624 1
127.7841668725 41.8418423533 10.9964196296 -0.0925795995 1
129.6860708594 41.8418423533 10.7669498096 0.1541290305 1
131.5879748464 41.8418423533 10.7450227763 -0.0691695409 1
133.4898788333 41.8418423533 11.2072576829 -0.1953493685 1
135.3917828202 41.8418423533 10.950167876 -0.2714122593 1
137.2936868072 41.8418423533 10.9689890973 -0.2424847255 1
139.1955907941 41.8418423533 10.7937436504 -0.5037176857 1
141.097494781 41.8418423533 10.731326145 -0.3293108082 1
142.9993987679 41.8418423533 10.818559089 -0.217967445 1
144.9013027549 41.8418423533 10.7679219288 -0.3125332113 1
146.8032067418 41.8418423533 10.4991418452 -0.6636639023 1
148.7051107287 41.8418423533 10.8041916023 -0.338586316 1
150.6070147157 41.8418423533 10.5322963892 -0.7954807787 1
152.5089187026 41.8418423533 10.5580963702 -0.221289111 1
154.4108226895 41.8418423533 10.5712277437 -0.8129835827 1
156.3127266765 41.8418423533 10.6697751611 -0.2122030577 1
158.2146306634 41.8418423533 10.5624041315 -0.5227997952 1
160.1165346503 41.8418423533 10.3580541197 -0.5185665733 1
162.0184386373 41.8418423533 10.3318721238 -0.5898263258 1
163.9203426242 41.8418423533 10.2994536573 -0.5466322442 1
165.8222466111 41.8418423533 10.3182282913 -0.7646633583 1
167.724150598 41.8418423533 0 -0 0
-22.466248095 39.9399383664 0 -0 0
-20.5643441081 39.9399383664 9.557894435 -0.0577059885 1
-18.6624401212 39.9399383664 9.2280478743 0.1375331236 1
-16.7605361342 39.9399383664 9.3286264928 0.0817682676 1
-14.8586321473 39.9399383664 9.3224614558 -0.1549613881 1
-12.9567281604 39.9399383664 9.351547386 0.5270594165 1
-11.0548241735 39.9399383664 9.4067531958 0.2849893168 1
-9.1529201865 39.9399383664 9.2546336257 0.3307798573 1
-7.2510161996 39.9399383664 9.4568250982 0.2421819089 1
-5.3491122127 39.9399383664 9.3651197848 0.1555809976 1
-3.4472082257 39.9399383664 0 -0 0
-1.5453042388 39.9399383664 0 -0 0
0.3565997481 39.9399383664 0 -0 0
2.2585037351 39.9399383664 0 -0 0
4.160407722 39.9399383664 0 -0 0
6.0623117089 39.9399383664 0 -0 0
7.9642156959 39.9399383664 0 -0 0
9.8661196828 39.9399383664 0 -0 0
11.7680236697 39.9399383664 0 -0 0
13.6699276567 39.9399383664 0 -0 0
15.5718316436 39.9399383664 0 -0 0
17.4737356305 39.9399383664 0 -0 0
19.3756396174 39.9399383664 9.7549023072 0.6629557771 1
21.2775436044 39.9399383664 9.3501187124 0.8666069813 1
23.1794475913 39.9399383664 9.640549412 0.7503191652 1
25.0813515782 39.9399383664 9.913537871 0.6216702171 1
26.9832555652 39.9399383664 9.6830648736 0.9167534232 1
28.8851595521 39.9399383664 9.4751369663 0.9905071427 1
30.787063539 39.9399383664 9.3787449824 0.9583216121 1
32.688967526 39.9399383664 9.7329939087 0.8090329898 1
34.5908715129 39.9399383664 9.6373876953 0.8343267234 1
36.4927754998 39.9399383664 9.8827748023 0.9187007673 1
38.3946794868 39.9399383664 9.4614931338 0.9020567204 1
40.2965834737 39.9399383664 9.6744710916 0.9527513381 1
42.1984874606 39.9399383664 10.2087453095 0.7517229923 1
44.1003914475 39.9399383664 10.1028060594 0.7661013493 1
46.0022954345 39.9399383664 9.6549355336 0.5923917266 1
47.9041994214 39.9399383664 10.0603340791 0.8199188611 1
49.8061034083 39.9399383664 9.907636828 0.928011992 1
51.7080073953 39.9399383664 9.9276631043 0.9352718277 1
53.6099113822 39.9399383664 10.0019448119 0.8101867989 1
55.5118153691 39.9399383664 10.0305338122 0.6657944893 1
57.4137193561 39.9399383664 10.2306226499 0.8484100283 1
59.315623343 39.9399383664 10.3390030683 0.9410175801 1
61.2175273299 39.9399383664 10.4105392381 1.0402451703 1
63.1194313169 39.9399383664 10.4673476469 0.8311463718 1
65.0213353038 39.9399383664 10.331306866 0.6218845181 1
66.9232392907 39.9399383664 10.3105569355 0.8500794023 1
68.8251432776 39.9399383664 10.4087502903 1.0136097259 1
70.7270472646 39.9399383664 10.4427899908 0.7230734287 1
72.6289512515 39.9399383664 10.280716293 0.5204999413 1
74.5308552384 39.9399383664 10.5062883188 0.659337506 1
76.4327592254 39.9399383664 10.6092925766 0.8460713518 1
78.3346632123 39.9399383664 10.6348223519 0.7860313455 1
80.2365671992 39.9399383664 10.5315820524 0.6660740124 1
82.1384711862 39.9399383664 10.2360764559 0.1748168448 1
84.0403751731 39.9399383664 10.4819201172 0.248674609 1
85.94227916 39.9399383664 10.6961869871 0.5770008748 1
87.844183147 39.9399383664 11.0312326772 0.7034369318 1
89.7460871339 39.9399383664 10.6788596614 0.8422931314 1
91.6479911208 39.9399383664 10.7234653346 0.8567103111 1
93.5498951077 39.9399383664 10.9495001264 0.7725241687 1
95.4517990947 39.9399383664 0 -0 0
97.3537030816 39.9399383664 0 -0 0
99.2556070685 39.9399383664 0 -0 0
101.1575110555 39.9399383664 0 -0 0
103.0594150424 39.9399383664 10.7813452486 0.501465972 1
104.9613190293 39.9399383664 10.746895581 0.3441115557 1
106.8632230163 39.9399383664 10.6695794949 0.482079493 1
108.7651270032 39.9399383664 10.5051671206 0.5937085909 1
110.6670309901 39.9399383664 10.7248070454 0.2830745837 1
112.5689349771 39.9399383664 10.7163934005 0.183325217 1
114.470838964 39.9399383664 10.773885088 0.2052693323 1
116.3727429509 39.9399383664 10.8795976139 0.203191544 1
118.2746469378 39.9399383664 10.962761944 0.2181786402 1
120.1765509248 39.9399383664 10.8507943126 0.1482792334 1
122.0784549117 39.9399383664 10.836342969 -0.1407010519 1
123.9803588986 39.9399383664 10.8654692747 -0.1326104115 1
125.8822628856 39.9399383664 11.0457616662 -0.0880621958 1
127.7841668725 39.9399383664 11.0133587287 0.0312398108 1
129.6860708594 39.9399383664 10.8987977442 -0.0239551286 1
131.5879748464 39.9399383664 10.8885889398 0.1189153331 1
133.4898788333 39.9399383664 11.1666740364 -0.1773667165 1
135.3917828202 39.9399383664 10.9362041449 -0.3075080073 1
137.2936868072 39.9399383664 10.855779141 -0.1901362629 1
139.1955907941 39.9399383664 10.9288930633 -0.3149868028 1
141.097494781 39.9399383664 10.8841693693 -0.34597349 1
142.9993987679 39.9399383664 10.818757861 -0.1529612451 1
144.9013027549 39.9399383664 10.6551592094 -0.5799638195 1
146.8032067418 39.9399383664 10.6385182683 -0.2534311602 1
148.7051107287 39.9399383664 10.8406755768 -0.3938262897 1
150.6070147157 39.9399383664 10.9014842716 -0.4477416346 1
152.5089187026 39.9399383664 10.5244448963 -0.7236945911 1
154.4108226895 39.9399383664 10.5217459456 -0.9186339924 1
156.3127266765 39.9399383664 9.8842935444 -0.9384816845 1
158.2146306634 39.9399383664 10.467428398 -0.6903505926 1
160.1165346503 39.9399383664 10.5403839239 -0.6852291085 1
162.0184386373 39.9399383664 10.4634995457 -0.7188339952 1
163.9203426242 39.9399383664 10.4237420452 -0.6242697818 1
165.8222466111 39.9399383664 10.3976097424 -0.7420903161 1
167.724150598 39.9399383664 0 -0 0
-22.466248095 38.0380343795 0 -0 0
-20.5643441081 38.0380343795 9.348820483 0.2002441283 1
-18.6624401212 38.0380343795 9.1426411478 0.1936194311 1
-16.7605361342 38.0380343795 9.3928795332 0.0905375281 1
-14.8586321473 38.0380343795 9.5093102166 0.1564257785 1
-12.9567281604 38.0380343795 9.5941703202 0.3882932855 1
-11.0548241735 38.0380343795 9.3723594328 0.4268131198 1
-9.1529201865 38.0380343795 9.281222483 0.4179553438 1
-7.2510161996 38.0380343795 9.3290644123 0.3726462042 1
-5.3491122127 38.0380343795 9.3721264969 0.3451023097 1
-3.4472082257 38.0380343795 0 -0 0
-1.5453042388 38.0380343795 0 -0 0
0.3565997481 38.0380343795 0 -0 0
2.2585037351 38.0380343795 0 -0 0
4.160407722 38.0380343795 0 -0 0
6.0623117089 38.0380343795 0 -0 0
7.9642156959 38.0380343795 0 -0 0
9.8661196828 38.0380343795 0 -0 0
11.7680236697 38.0380343795 0 -0 0
13.6699276567 38.0380343795 0 -0 0
15.5718316436 38.0380343795 0 -0 0
17.4737356305 38.0380343795 0 -0 0
19.3756396174 38.0380343795 9.7093524671 0.702821981 1
21.2775436044 38.0380343795 9.2183453173 0.8595164123 1
23.1794475913 38.0380343795 9.4540267615 0.8786544263 1
25.0813515782 38.0380343795 9.9929224278 0.823589931 1
26.9832555652 38.0380343795 9.5099189558 0.8995239306 1
28.8851595521 38.0380343795 9.8182795085 0.7616351915 1
30.787063539 38.0380343795 9.6311636479 0.7906652171 1
32.688967526 38.0380343795 9.8300256898 0.9633079934 1
34.5908715129 38.0380343795 9.6773346504 0.8631269188 1
36.4927754998 38.0380343795 10.2055866987 0.9818403741 1
38.3946794868 38.0380343795 9.7227695753 0.8960531856 1
40.2965834737 38.0380343795 9.8166147933 0.9070182552 1
42.1984874606 38.0380343795 9.9920403772 1.0810586469 1
44.1003914475 38.0380343795 10.0080322036 0.9581834035 1
46.0022954345 38.0380343795 10.0686421264 0.9021700825 1
47.9041994214 38.0380343795 9.9666161995 1.1074005921 1
49.8061034083 38.0380343795 9.9519785071 0.9580234541 1
51.7080073953 38.0380343795 10.106216241 1.0131159018 1
53.6099113822 38.0380343795 10.184954789 0.9334145521 1
55.5118153691 38.0380343795 10.1726961487 0.8489380163 1
57.4137193561 38.0380343795 10.2400053082 0.7178028656 1
59.315623343 38.0380343795 10.3606567902 1.07171947 1
61.2175273299 38.0380343795 10.1845168695 1.2898359939 1
63.1194313169 38.0380343795 10.5767436659 0.7471590014 1
65.0213353038 38.0380343795 10.2452323899 0.5997245489 1
66.9232392907 38.0380343795 10.2662680552 0.7203496315 1
68.8251432776 38.0380343795 10.2500432928 0.6982579902 1
70.7270472646 38.0380343795 10.5147951381 0.6505247642 1
72.6289512515 38.0380343795 10.3878605982 0.7687894297 1
74.5308552384 38.0380343795 10.5719482921 0.9795700255 1
76.4327592254 38.0380343795 10.5467570503 0.9996025134 1
78.3346632123 38.0380343795 10.8068812355 0.9829677839 1
80.2365671992 38.0380343795 10.7208595583 0.9559410071 1
82.1384711862 38.0380343795 10.4671768272 0.6424480999 1
84.0403751731 38.0380343795 10.5509716373 0.5951838516 1
85.94227916 38.0380343795 10.5913440885 0.4936082674 1
87.844183147 38.0380343795 10.6747786244 0.8478727228 1
89.7460871339 38.0380343795 10.6647157932 0.5736450448 1
91.6479911208 38.0380343795 10.9495001264 0.8331993136 1
93.5498951077 38.0380343795 10.7951785356 0.789030007 1
95.4517990947 38.0380343795 0 -0 0
97.3537030816 38.0380343795 0 -0 0
99.2556070685 38.0380343795 0 -0 0
101.1575110555 38.0380343795 0 -0 0
103.0594150424 38.0380343795 10.779866882 0.5077319479 1
104.9613190293 38.0380343795 10.8050301715 0.3963031748 1
106.8632230163 38.0380343795 10.803253647 0.5078825797 1
108.7651270032 38.0380343795 10.6510440084 0.4803542143 1
110.6670309901 38.0380343795 10.8155371338 0.3073682458 1
112.5689349771 38.0380343795 10.8423402921 0.0925625175 1
114.470838964 38.0380343795 10.8684788066 0.3105749968 1
116.3727429509 38.0380343795 10.9180941546 0.293052005 1
118.2746469378 38.0380343795 11.0443174636 0.2099187329 1
120.1765509248 38.0380343795 10.9846517076 0.1404246347 1
122.0784549117 38.0380343795 10.9509660697 -0.0760147508 1
123.9803588986 38.0380343795 11.0583122528 0.1321150344 1
125.8822628856 38.0380343795 11.1029396666 0.0040189208 1
127.7841668725 38.0380343795 11.0773601983 -0.0168226312 1
129.6860708594 38.0380343795 10.8640468128 -0.1900058188 1
131.5879748464 38.0380343795 10.8638356175 0.1392661668 1
133.4898788333 38.0380343795 10.7986197754 -0.3873568831 1
135.3917828202 38.0380343795 11.1236461158 -0.3459269028 1
137.2936868072 38.0380343795 10.8138879476 -0.2814067626 1
139.1955907941 38.0380343795 10.8966454164 -0.307265754 1
141.097494781 38.0380343795 10.8186833215 -0.467600197 1
142.9993987679 38.0380343795 10.7647819527 -0.3372259703 1
144.9013027549 38.0380343795 10.8388928407 -0.7441059881 1
146.8032067418 38.0380343795 10.2505122704 -0.9402271509 1
148.7051107287 38.0380343795 10.9156995735 -0.2990073997 1
150.6070147157 38.0380343795 10.9597182482 -0.4841479638 1
152.5089187026 38.0380343795 10.6674147439 -0.476690909 1
154.4108226895 38.0380343795 10.0866403075 -0.9434137141 1
156.3127266765 38.0380343795 10.6308220659 -0.3368563786 1
158.2146306634 38.0380343795 9.8944712906 -0.8193768969 1
160.1165346503 38.0380343795 9.5746409738 -0.7982061288 1
162.0184386373 38.0380343795 10.3518238606 -0.844133325 1
163.9203426242 38.0380343795 10.4304692342 -0.678046918 1
165.8222466111 38.0380343795 10.4277920242 -0.604631732 1
167.724150598 38.0380343795 0 -0 0
-22.466248095 36.1361303926 0 -0 0
-20.5643441081 36.1361303926 9.27836203 0.2826490874 1
-18.6624401212 36.1361303926 9.3612126732 0.3346434875 1
-16.7605361342 36.1361303926 9.6034411693 -0.0167279039 1
-14.8586321473 36.1361303926 9.4722237145 0.1040183054 1
-12.9567281604 36.1361303926 9.4234314067 0.3400382831 1
-11.0548241735 36.1361303926 9.3053018441 0.3672156917 1
-9.1529201865 36.1361303926 8.9934907341 0.4536892647 1
-7.2510161996 36.1361303926 9.2907169505 0.3623768365 1
-5.3491122127 36.1361303926 9.303320336 0.4658267783 1
-3.4472082257 36.1361303926 0 -0 0
-1.5453042388 36.1361303926 0 -0 0
0.3565997481 36.1361303926 0 -0 0
2.2585037351 36.1361303926 0 -0 0
4.160407722 36.1361303926 0 -0 0
6.0623117089 36.1361303926 0 -0 0
7.9642156959 36.1361303926 0 -0 0
9.8661196828 36.1361303926 0 -0 0
11.7680236697 36.1361303926 0 -0 0
13.6699276567 36.1361303926 0 -0 0
15.5718316436 36.1361303926 0 -0 0
17.4737356305 36.1361303926 0 -0 0
19.3756396174 36.1361303926 9.6611533694 0.6843175526 1
21.2775436044 36.1361303926 9.0774998451 0.7666464193 1
23.1794475913 36.1361303926 9.4880975201 0.8062967693 1
25.0813515782 36.1361303926 9.8399860292 0.7532852157 1
26.9832555652 36.1361303926 9.3333317981 0.8730375652 1
28.8851595521 36.1361303926 9.6717472944 0.9254528028 1
30.787063539 36.1361303926 9.7885786276 0.903351844 1
32.688967526 36.1361303926 9.6138953327 0.9789426514 1
34.5908715129 36.1361303926 9.7042403004 0.8764399823 1
36.4927754998 36.1361303926 10.1360009789 0.9713691287 1
38.3946794868 36.1361303926 9.9875493729 0.900525555 1
40.2965834737 36.1361303926 9.9347132978 1.0423151941 1
42.1984874606 36.1361303926 9.823643246 1.1507856811 1
44.1003914475 36.1361303926 9.9263928272 0.8929209741 1
46.0022954345 36.1361303926 10.2430955912 0.981461465 1
47.9041994214 36.1361303926 9.9292501743 1.0261106195 1
49.8061034083 36.1361303926 10.1403770681 1.0035826116 1
51.7080073953 36.1361303926 10.115884634 0.9345621497 1
53.6099113822 36.1361303926 10.1390446748 0.8869469446 1
55.5118153691 36.1361303926 9.8778241378 0.8223957462 1
57.4137193561 36.1361303926 10.1811501692 0.8632092228 1
59.315623343 36.1361303926 10.3678094754 1.1461285159 1
61.2175273299 36.1361303926 10.0293536036 1.2139454757 1
63.1194313169 36.1361303926 10.455595254 0.6561121202 1
65.0213353038 36.1361303926 10.2951521075 0.7677489826 1
66.9232392907 36.1361303926 10.2130654942 0.9467198511 1
68.8251432776 36.1361303926 10.373055192 0.470459097 1
70.7270472646 36.1361303926 10.4018429642 0.877618638 1
72.6289512515 36.1361303926 10.5300539929 1.055918651 1
74.5308552384 36.1361303926 10.6443168194 1.4075354016 1
76.4327592254 36.1361303926 10.5453687523 1.0844843577 1
78.3346632123 36.1361303926 10.7841684318 1.0412188424 1
80.2365671992 36.1361303926 10.7626700005 1.0147278183 1
82.1384711862 36.1361303926 10.5410175095 0.6710774757 1
84.0403751731 36.1361303926 10.8838991636 1.0736171212 1
85.94227916 36.1361303926 10.6078266333 0.8044953983 1
87.844183147 36.1361303926 10.4812772141 0.712342848 1
89.7460871339 36.1361303926 10.6700018854 0.7817857003 1
91.6479911208 36.1361303926 10.4813890233 0.5685794653 1
93.5498951077 36.1361303926 10.8111299865 0.6033723252 1
95.4517990947 36.1361303926 0 -0 0
97.3537030816 36.1361303926 0 -0 0
99.2556070685 36.1361303926 0 -0 0
101.1575110555 36.1361303926 0 -0 0
103.0594150424 36.1361303926 10.8456821459 0.1647912834 1
104.9613190293 36.1361303926 10.9189730995 0.3056196736 1
106.8632230163 36.1361303926 10.8960801586 0.4844864973 1
108.7651270032 36.1361303926 10.8595527027 0.5104184753 1
110.6670309901 36.1361303926 10.9313808187 0.4150731501 1
112.5689349771 36.1361303926 11.0361647068 0.2789919937 1
114.470838964 36.1361303926 10.9336387441 0.3509785062 1
116.3727429509 36.1361303926 10.8733611432 0.2138833021 1
118.2746469378 36.1361303926 10.9113172727 0.2264758172 1
120.1765509248 36.1361303926 10.970150671 0.2421710385 1
122.0784549117 36.1361303926 10.9628085312 0.1002866722 1
123.9803588986 36.1361303926 11.1541296614 0.1773713752 1
125.8822628856 36.1361303926 11.1074493058 0.1324908377 1
127.7841668725 36.1361303926 11.052408104 -0.2333163683 1
129.6860708594 36.1361303926 10.954879393 -0.2703174605 1
131.5879748464 36.1361303926 10.9765765962 -0.0136593615 1
133.4898788333 36.1361303926 11.0020256204 -0.2389270178 1
135.3917828202 36.1361303926 11.1588753423 -0.3352009808 1
137.2936868072 36.1361303926 10.8167546122 -0.1752190474 1
139.1955907941 36.1361303926 10.8598260141 -0.2076716779 1
141.097494781 36.1361303926 10.7296924878 -0.1799429876 1
142.9993987679 36.1361303926 10.83156623 -0.6358668841 1
144.9013027549 36.1361303926 10.8105988926 -0.6786277049 1
146.8032067418 36.1361303926 10.9617401319 -0.4887756238 1
148.7051107287 36.1361303926 10.8539094421 -0.4776630282 1
150.6070147157 36.1361303926 10.3056280117 -0.9095277514 1
152.5089187026 36.1361303926 10.2091273244 -0.8680636071 1
154.4108226895 36.1361303926 9.9029408401 -0.8585473989 1
156.3127266765 36.1361303926 10.5629973417 -0.4587362093 1
158.2146306634 36.1361303926 10.354793017 -0.6359942224 1
160.1165346503 36.1361303926 9.5918471727 -0.7641819574 1
162.0184386373 36.1361303926 10.2172459172 -0.7794392593 1
163.9203426242 36.1361303926 10.2659326274 -0.8513046451 1
165.8222466111 36.1361303926 10.3340182399 -0.6621125491 1
167.724150598 36.1361303926 0 -0 0
-22.466248095 34.2342264056 0 -0 0
-20.5643441081 34.2342264056 9.3398602151 0.3057718584 1
-18.6624401212 34.2342264056 9.1312148651 0.2490162484 1
-16.7605361342 34.2342264056 9.5384334165 0.1161169964 1
-14.8586321473 34.2342264056 9.3606505212 0.2244554864 1
-12.9567281604 34.2342264056 9.2458224368 0.3565813912 1
-11.0548241735 34.2342264056 9.4043461914 0.2603151927 1
-9.1529201865 34.2342264056 9.1086946217 0.3643707679 1
-7.2510161996 34.2342264056 9.2870645155 0.5391845068 1
-5.3491122127 34.2342264056 9.197194737 0.4292931108 1
-3.4472082257 34.2342264056 0 -0 0
-1.5453042388 34.2342264056 0 -0 0
0.3565997481 34.2342264056 0 -0 0
2.2585037351 34.2342264056 0 -0 0
4.160407722 34.2342264056 0 -0 0
6.0623117089 34.2342264056 0 -0 0
7.9642156959 34.2342264056 0 -0 0
9.8661196828 34.2342264056 0 -0 0
11.7680236697 34.2342264056 0 -0 0
13.6699276567 34.2342264056 0 -0 0
15.5718316436 34.2342264056 0 -0 0
17.4737356305 34.2342264056 0 -0 0
19.3756396174 34.2342264056 9.3493453652 0.7572078564 1
21.2775436044 34.2342264056 9.1423460956 0.8710529513 1
23.1794475913 34.2342264056 9.6631690414 0.7597670456 1
25.0813515782 34.2342264056 9.7210365322 0.7889570204 1
26.9832555652 34.2342264056 9.3430405667 0.9254885197 1
28.8851595521 34.2342264056 9.5227304306 1.0492861893 1
30.787063539 34.2342264056 10.0152221586 1.0804871775 1
32.688967526 34.2342264056 9.4797304623 1.0811362922 1
34.5908715129 34.2342264056 9.7550265396 1.0012097712 1
36.4927754998 34.2342264056 9.7480198276 0.9360482807 1
38.3946794868 34.2342264056 9.5930926034 1.0248481069 1
40.2965834737 34.2342264056 9.9254455545 1.1231470594 1
42.1984874606 34.2342264056 10.0940631983 1.005360689 1
44.1003914475 34.2342264056 9.8737120426 0.8865447419 1
46.0022954345 34.2342264056 9.9569540181 0.989230654 1
47.9041994214 34.2342264056 9.8080023764 0.9254528028 1
49.8061034083 34.2342264056 10.1960456439 0.9970076074 1
51.7080073953 34.2342264056 10.4250713328 0.8530532173 1
53.6099113822 34.2342264056 10.3480627222 0.8063464623 1
55.5118153691 34.2342264056 10.2812722333 0.8407976828 1
57.4137193561 34.2342264056 10.2585594296 0.9656808338 1
59.315623343 34.2342264056 10.3382887316 0.9482820745 1
61.2175273299 34.2342264056 10.3506219114 0.9364582479 1
63.1194313169 34.2342264056 10.506185827 0.7712554445 1
65.0213353038 34.2342264056 10.3695549418 1.0632887431 1
66.9232392907 34.2342264056 10.2714454439 1.0971265658 1
68.8251432776 34.2342264056 10.0834816966 1.0681648681 1
70.7270472646 34.2342264056 10.1189811287 0.7974964508 1
72.6289512515 34.2342264056 10.7609090051 1.1597443961 1
74.5308552384 34.2342264056 10.8774577093 1.0328036446 1
76.4327592254 34.2342264056 10.9000711271 0.9635486938 1
78.3346632123 34.2342264056 10.6310270495 0.9442755769 1
80.2365671992 34.2342264056 10.8064184695 0.9984378339 1
82.1384711862 34.2342264056 10.9453942429 0.9064514445 1
84.0403751731 34.2342264056 10.9748839286 0.874543884 1
85.94227916 34.2342264056 10.712417961 0.7838370892 1
87.844183147 34.2342264056 10.6128487314 0.7305149545 1
89.7460871339 34.2342264056 10.6793472739 0.5614733673 1
91.6479911208 34.2342264056 10.502996158 0.6007432552 1
93.5498951077 34.2342264056 10.9222279905 0.6010848946 1
95.4517990947 34.2342264056 0 -0 0
97.3537030816 34.2342264056 0 -0 0
99.2556070685 34.2342264056 0 -0 0
101.1575110555 34.2342264056 0 -0 0
103.0594150424 34.2342264056 10.9151156809 0.2381319299 1
104.9613190293 34.2342264056 11.0814288121 0.2162375076 1
106.8632230163 34.2342264056 10.889974132 0.2474959533 1
108.7651270032 34.2342264056 10.9262810753 0.5127944216 1
110.6670309901 34.2342264056 11.0118213517 0.4101690729 1
112.5689349771 34.2342264056 10.9186687299 0.3293123611 1
114.470838964 34.2342264056 10.7993962284 0.4431046571 1
116.3727429509 34.2342264056 10.8403681014 0.1444901427 1
118.2746469378 34.2342264056 10.9052423042 0.1208409366 1
120.1765509248 34.2342264056 11.0735462611 0.2072710281 1
122.0784549117 34.2342264056 10.9671162926 0.2289061151 1
123.9803588986 34.2342264056 10.9544290502 0.0937924191 1
125.8822628856 34.2342264056 11.05799546 -0.1734456287 1
127.7841668725 34.2342264056 11.0841867733 -0.417768995 1
129.6860708594 34.2342264056 11.0525105958 -0.2605015414 1
131.5879748464 34.2342264056 11.2260571635 -0.3011146932 1
133.4898788333 34.2342264056 11.1535923559 -0.2961158886 1
135.3917828202 34.2342264056 11.0896002037 -0.3195212885 1
137.2936868072 34.2342264056 11.1271556835 -0.3931445639 1
139.1955907941 34.2342264056 10.9224919846 -0.5233867937 1
141.097494781 34.2342264056 10.9947238562 -0.4934902466 1
142.9993987679 34.2342264056 10.4548405416 -1.1121711195 1
144.9013027549 34.2342264056 10.3747664945 -0.9399957679 1
146.8032067418 34.2342264056 10.7860350248 -0.5754013815 1
148.7051107287 34.2342264056 10.3105227715 -0.9233548267 1
150.6070147157 34.2342264056 10.1221086815 -0.8619793213 1