VARIABLES= X,Y,U,V,Vel,R
ZONE I=104,J=80 F=POINT
0.000066 0.000066 0.000000 0.000000 0.000000 0.216450
0.000132 0.000066 0.000000 0.000000 0.000000 0.261244
0.000198 0.000066 0.000000 0.000000 0.000000 0.263403
0.000264 0.000066 0.000000 0.000000 0.000000 0.280769
0.000330 0.000066 0.000000 0.000000 0.000000 0.296541
0.000396 0.000066 0.000000 0.000000 0.000000 0.321461
0.000462 0.000066 0.000000 0.000000 0.000000 0.261797
0.000528 0.000066 0.000000 0.000000 0.000000 0.220424
0.000594 0.000066 0.000000 0.000000 0.000000 0.316951
0.000660 0.000066 0.000000 0.000000 0.000000 0.297298
0.000726 0.000066 0.000000 0.000000 0.000000 0.256920
0.000792 0.000066 0.000000 0.000000 0.000000 0.375332
0.000858 0.000066 0.000000 0.000000 0.000000 0.392235
0.000924 0.000066 0.000000 0.000000 0.000000 0.393854
0.000990 0.000066 0.411918 0.017035 0.412270 0.400548
0.001056 0.000066 0.000000 0.000000 0.000000 0.361285
0.001122 0.000066 0.413641 0.018786 0.414068 0.410964
0.001188 0.000066 0.412032 0.016532 0.412364 0.491974
0.001254 0.000066 0.412353 0.016626 0.412688 0.492506
0.001320 0.000066 0.412944 0.016803 0.413285 0.483223
0.001386 0.000066 0.414334 0.016123 0.414647 0.476027
0.001452 0.000066 0.414946 0.015977 0.415253 0.536027
0.001518 0.000066 0.415449 0.015628 0.415743 0.583439
0.001584 0.000066 0.414997 0.017627 0.415371 0.514025
0.001650 0.000066 0.416735 0.018409 0.417141 0.460980
0.001716 0.000066 0.417272 0.016730 0.417607 0.528869
0.001782 0.000066 0.417197 0.015839 0.417497 0.626963
0.001848 0.000066 0.417394 0.015604 0.417686 0.621266
0.001914 0.000066 0.417441 0.015209 0.417718 0.575338
0.001980 0.000066 0.415929 0.015343 0.416212 0.639466
0.002046 0.000066 0.415958 0.015495 0.416246 0.647324
0.002112 0.000066 0.415331 0.014963 0.415600 0.670459
0.002178 0.000066 0.416587 0.015145 0.416862 0.693608
0.002244 0.000066 0.418991 0.015199 0.419267 0.698959
0.002310 0.000066 0.418767 0.015526 0.419054 0.730549
0.002376 0.000066 0.419936 0.015089 0.420207 0.765622
0.002442 0.000066 0.419579 0.014898 0.419843 0.773583
0.002508 0.000066 0.420799 0.014676 0.421055 0.778306
0.002574 0.000066 0.419530 0.014363 0.419776 0.775133
0.002640 0.000066 0.419927 0.014035 0.420162 0.761236
0.002706 0.000066 0.418633 0.014469 0.418883 0.762431
0.002772 0.000066 0.419017 0.014431 0.419265 0.794623
0.002838 0.000066 0.419094 0.015155 0.419368 0.763190
0.002904 0.000066 0.420065 0.015819 0.420363 0.771242
0.002970 0.000066 0.419950 0.015577 0.420239 0.787246
0.003036 0.000066 0.419883 0.015857 0.420182 0.750227
0.003102 0.000066 0.418740 0.016282 0.419057 0.742256
0.003168 0.000066 0.419211 0.016134 0.419521 0.756302
0.003234 0.000066 0.419420 0.016770 0.419756 0.758843
0.003300 0.000066 0.417904 0.017352 0.418264 0.760193
0.003366 0.000066 0.417732 0.017687 0.418107 0.776070
0.003432 0.000066 0.419751 0.018062 0.420140 0.798593
0.003498 0.000066 0.420238 0.018222 0.420633 0.798718
0.003564 0.000066 0.419861 0.019411 0.420310 0.791872
0.003630 0.000066 0.420012 0.017149 0.420361 0.834686
0.003696 0.000066 0.420391 0.016154 0.420702 0.839256
0.003762 0.000066 0.421092 0.016435 0.421412 0.814910
0.003828 0.000066 0.421598 0.016916 0.421937 0.814670
0.003894 0.000066 0.419980 0.017214 0.420333 0.836166
0.003960 0.000066 0.418577 0.017468 0.418941 0.835900
0.004026 0.000066 0.419909 0.016478 0.420233 0.869889
0.004092 0.000066 0.419951 0.016480 0.420274 0.884181
0.004158 0.000066 0.418872 0.017088 0.419220 0.858207
0.004224 0.000066 0.417747 0.017324 0.418106 0.840921
0.004290 0.000066 0.419087 0.018294 0.419486 0.847808
0.004356 0.000066 0.420339 0.017994 0.420724 0.842094
0.004422 0.000066 0.420034 0.016691 0.420366 0.798888
0.004488 0.000066 0.419389 0.017157 0.419740 0.811980
0.004554 0.000066 0.420128 0.017335 0.420485 0.851965
0.004620 0.000066 0.419035 0.017664 0.419407 0.851071
0.004686 0.000066 0.419827 0.018429 0.420231 0.833901
0.004752 0.000066 0.418688 0.017307 0.419045 0.824805
0.004818 0.000066 0.417457 0.016688 0.417791 0.837239
0.004884 0.000066 0.417440 0.017557 0.417809 0.823066
0.004950 0.000066 0.418090 0.018109 0.418482 0.804557
0.005016 0.000066 0.418497 0.018390 0.418901 0.810096
0.005082 0.000066 0.418344 0.018152 0.418738 0.766568
0.005148 0.000066 0.419025 0.018889 0.419450 0.731649
0.005214 0.000066 0.417796 0.019029 0.418229 0.756769
0.005280 0.000066 0.416593 0.018405 0.417000 0.719644
0.005346 0.000066 0.417025 0.019358 0.417474 0.673019
0.005412 0.000066 0.416494 0.020171 0.416982 0.699628
0.005478 0.000066 0.417514 0.019653 0.417976 0.764655
0.005544 0.000066 0.418231 0.019739 0.418697 0.771233
0.005610 0.000066 0.416174 0.019239 0.416618 0.792511
0.005676 0.000066 0.415948 0.018645 0.416366 0.786305
0.005742 0.000066 0.416185 0.020402 0.416685 0.715149
0.005808 0.000066 0.416034 0.021085 0.416568 0.745366
0.005874 0.000066 0.415812 0.020238 0.416305 0.711425
0.005940 0.000066 0.416240 0.019557 0.416699 0.676674
0.006006 0.000066 0.415132 0.020957 0.415661 0.641697
0.006072 0.000066 0.414238 0.021011 0.414771 0.585707
0.006138 0.000066 0.413799 0.019180 0.414243 0.643574
0.006204 0.000066 0.414474 0.018170 0.414872 0.694416
0.006270 0.000066 0.413763 0.019041 0.414201 0.634512
0.006336 0.000066 0.413137 0.019584 0.413601 0.581580
0.006402 0.000066 0.413590 0.020126 0.414080 0.602156
0.006468 0.000066 0.413826 0.020787 0.414348 0.554298
0.006534 0.000066 0.413295 0.021182 0.413838 0.480672
0.006600 0.000066 0.414238 0.020006 0.414720 0.547762
0.006666 0.000066 0.410615 0.019970 0.411100 0.553349
0.006732 0.000066 0.407071 0.020730 0.407598 0.527035
0.006798 0.000066 0.406983 0.021960 0.407575 0.524420
0.006864 0.000066 0.408274 0.020029 0.408765 0.555340
0.000066 0.000132 0.000000 0.000000 0.000000 0.290534
0.000132 0.000132 0.000000 0.000000 0.000000 0.239230
0.000198 0.000132 0.000000 0.000000 0.000000 0.231154
0.000264 0.000132 0.000000 0.000000 0.000000 0.258518
0.000330 0.000132 0.000000 0.000000 0.000000 0.302428
0.000396 0.000132 0.000000 0.000000 0.000000 0.314262
0.000462 0.000132 0.000000 0.000000 0.000000 0.334543
0.000528 0.000132 0.000000 0.000000 0.000000 0.301452
0.000594 0.000132 0.000000 0.000000 0.000000 0.315594
0.000660 0.000132 0.000000 0.000000 0.000000 0.303470
0.000726 0.000132 0.000000 0.000000 0.000000 0.310924
0.000792 0.000132 0.405570 -0.013866 0.405807 0.403414
0.000858 0.000132 0.403799 -0.014201 0.404049 0.422832
0.000924 0.000132 0.407204 -0.014149 0.407450 0.426295
0.000990 0.000132 0.414827 -0.007812 0.414901 0.439727
0.001056 0.000132 0.417303 -0.005437 0.417338 0.455272
0.001122 0.000132 0.414449 -0.008681 0.414540 0.486152
0.001188 0.000132 0.411914 -0.012435 0.412102 0.466681
0.001254 0.000132 0.411347 -0.016557 0.411680 0.418254
0.001320 0.000132 0.411674 -0.017132 0.412030 0.462034
0.001386 0.000132 0.414906 -0.021388 0.415457 0.475866
0.001452 0.000132 0.415796 -0.013141 0.416004 0.546267
0.001518 0.000132 0.414596 -0.010967 0.414741 0.597291
0.001584 0.000132 0.414796 -0.012766 0.414992 0.570863
0.001650 0.000132 0.415573 -0.013002 0.415777 0.518832
0.001716 0.000132 0.415735 -0.012916 0.415935 0.537346
0.001782 0.000132 0.415984 -0.012018 0.416158 0.602523
0.001848 0.000132 0.415596 -0.011308 0.415749 0.577920
0.001914 0.000132 0.416124 -0.013955 0.416358 0.557135
0.001980 0.000132 0.417099 -0.012755 0.417294 0.609064
0.002046 0.000132 0.415919 -0.013352 0.416133 0.597779
0.002112 0.000132 0.414271 -0.012069 0.414447 0.633835
0.002178 0.000132 0.416352 -0.012306 0.416534 0.688690
0.002244 0.000132 0.419657 -0.012878 0.419854 0.717022
0.002310 0.000132 0.419426 -0.012359 0.419608 0.705283
0.002376 0.000132 0.419703 -0.011067 0.419848 0.728651
0.002442 0.000132 0.420410 -0.013655 0.420632 0.755426
0.002508 0.000132 0.420898 -0.013403 0.421112 0.773098
0.002574 0.000132 0.419591 -0.009649 0.419702 0.793170
0.002640 0.000132 0.419657 -0.010166 0.419780 0.775557
0.002706 0.000132 0.419429 -0.011239 0.419580 0.751090
0.002772 0.000132 0.419424 -0.010158 0.419547 0.773931
0.002838 0.000132 0.418210 -0.006679 0.418263 0.754285
0.002904 0.000132 0.419353 -0.007932 0.419428 0.751817
0.002970 0.000132 0.419574 -0.007121 0.419634 0.768291
0.003036 0.000132 0.419628 -0.004433 0.419651 0.750470
0.003102 0.000132 0.419153 -0.005276 0.419186 0.799721
0.003168 0.000132 0.419252 -0.005050 0.419283 0.807213
0.003234 0.000132 0.420325 -0.004850 0.420353 0.798763
0.003300 0.000132 0.418763 -0.004961 0.418793 0.776077
0.003366 0.000132 0.418378 -0.003003 0.418389 0.742896
0.003432 0.000132 0.420049 -0.003426 0.420063 0.775760
0.003498 0.000132 0.419655 -0.002316 0.419661 0.762686
0.003564 0.000132 0.420045 -0.002143 0.420051 0.761773
0.003630 0.000132 0.420091 -0.004247 0.420113 0.814730
0.003696 0.000132 0.420208 -0.002791 0.420217 0.832114
0.003762 0.000132 0.420968 -0.002709 0.420977 0.829379
0.003828 0.000132 0.419789 -0.001843 0.419793 0.856082
0.003894 0.000132 0.419093 -0.000578 0.419093 0.876843
0.003960 0.000132 0.418908 -0.000371 0.418908 0.845000
0.004026 0.000132 0.420352 0.000051 0.420352 0.821224
0.004092 0.000132 0.421497 0.002256 0.421503 0.847428
0.004158 0.000132 0.420719 0.001673 0.420722 0.871979
0.004224 0.000132 0.419276 0.002270 0.419283 0.852088
0.004290 0.000132 0.419993 0.003856 0.420011 0.858329
0.004356 0.000132 0.420613 0.003970 0.420632 0.841054
0.004422 0.000132 0.420092 0.002021 0.420097 0.793605
0.004488 0.000132 0.419827 0.002173 0.419833 0.812543
0.004554 0.000132 0.419776 0.001951 0.419781 0.840823
0.004620 0.000132 0.419478 0.003249 0.419490 0.842659
0.004686 0.000132 0.420003 0.003793 0.420020 0.825184
0.004752 0.000132 0.418438 0.003284 0.418451 0.817004
0.004818 0.000132 0.418692 0.002089 0.418697 0.830200
0.004884 0.000132 0.419810 0.002865 0.419820 0.821059
0.004950 0.000132 0.419722 0.003051 0.419733 0.809816
0.005016 0.000132 0.419097 0.002271 0.419103 0.818471
0.005082 0.000132 0.417512 0.004297 0.417534 0.776896
0.005148 0.000132 0.417849 0.006524 0.417900 0.726137
0.005214 0.000132 0.417846 0.006892 0.417903 0.724236
0.005280 0.000132 0.417775 0.005239 0.417808 0.712589
0.005346 0.000132 0.417220 0.006440 0.417270 0.732452
0.005412 0.000132 0.416016 0.007133 0.416077 0.724572
0.005478 0.000132 0.416915 0.005941 0.416957 0.756518
0.005544 0.000132 0.419190 0.004947 0.419219 0.784827
0.005610 0.000132 0.416818 0.004927 0.416847 0.822718
0.005676 0.000132 0.415716 0.005982 0.415759 0.803793
0.005742 0.000132 0.414819 0.006582 0.414871 0.761422
0.005808 0.000132 0.414906 0.006898 0.414963 0.755049
0.005874 0.000132 0.414876 0.006940 0.414934 0.735072
0.005940 0.000132 0.415601 0.006672 0.415655 0.700009
0.006006 0.000132 0.413359 0.005885 0.413401 0.663524
0.006072 0.000132 0.410738 0.005056 0.410770 0.639325
0.006138 0.000132 0.412047 0.005257 0.412080 0.650932
0.006204 0.000132 0.413909 0.005114 0.413940 0.644814
0.006270 0.000132 0.412814 0.007592 0.412884 0.563255
0.006336 0.000132 0.413424 0.009037 0.413522 0.596076
0.006402 0.000132 0.414320 0.007943 0.414396 0.614505
0.006468 0.000132 0.414116 0.006294 0.414164 0.611223
0.006534 0.000132 0.413547 0.007644 0.413617 0.574996
0.006600 0.000132 0.414128 0.005176 0.414161 0.584411
0.006666 0.000132 0.411759 0.003663 0.411775 0.589130
0.006732 0.000132 0.409569 0.003049 0.409580 0.581627
0.006798 0.000132 0.408261 0.007469 0.408329 0.570986
0.006864 0.000132 0.408445 0.008139 0.408526 0.571748
0.000066 0.000198 0.000000 0.000000 0.000000 0.300445
0.000132 0.000198 0.000000 0.000000 0.000000 0.233775
0.000198 0.000198 0.000000 0.000000 0.000000 0.246337
0.000264 0.000198 0.000000 0.000000 0.000000 0.317845
0.000330 0.000198 0.000000 0.000000 0.000000 0.351808
0.000396 0.000198 0.000000 0.000000 0.000000 0.313160
0.000462 0.000198 0.000000 0.000000 0.000000 0.325161
0.000528 0.000198 0.000000 0.000000 0.000000 0.366130
0.000594 0.000198 0.000000 0.000000 0.000000 0.360125
0.000660 0.000198 0.000000 0.000000 0.000000 0.353127
0.000726 0.000198 0.000000 0.000000 0.000000 0.390532
0.000792 0.000198 0.413265 -0.011393 0.413422 0.448443
0.000858 0.000198 0.409671 -0.010399 0.409803 0.488580
0.000924 0.000198 0.409322 -0.013412 0.409542 0.481427
0.000990 0.000198 0.410536 -0.012497 0.410726 0.463088
0.001056 0.000198 0.416144 -0.011623 0.416306 0.466146
0.001122 0.000198 0.415442 -0.011031 0.415588 0.497095
0.001188 0.000198 0.413563 -0.013144 0.413772 0.490712
0.001254 0.000198 0.413542 -0.012939 0.413745 0.425187
0.001320 0.000198 0.410997 -0.022616 0.411618 0.415960
0.001386 0.000198 0.415196 -0.026562 0.416045 0.451608
0.001452 0.000198 0.416060 -0.013571 0.416281 0.544682
0.001518 0.000198 0.414501 -0.011549 0.414662 0.573722
0.001584 0.000198 0.415554 -0.011923 0.415725 0.614938
0.001650 0.000198 0.416159 -0.011910 0.416329 0.575207
0.001716 0.000198 0.416876 -0.015080 0.417149 0.519125
0.001782 0.000198 0.416177 -0.016049 0.416487 0.556646
0.001848 0.000198 0.415415 -0.015424 0.415701 0.540580
0.001914 0.000198 0.416787 -0.015075 0.417059 0.527341
0.001980 0.000198 0.418530 -0.014383 0.418777 0.582412
0.002046 0.000198 0.415130 -0.012958 0.415332 0.630935
0.002112 0.000198 0.414000 -0.011728 0.414166 0.659384
0.002178 0.000198 0.416772 -0.010852 0.416913 0.674658
0.002244 0.000198 0.420692 -0.011112 0.420839 0.700847
0.002310 0.000198 0.421100 -0.011305 0.421252 0.695274
0.002376 0.000198 0.420568 -0.009301 0.420671 0.706471
0.002442 0.000198 0.420209 -0.010966 0.420352 0.691883
0.002508 0.000198 0.420737 -0.012127 0.420912 0.748576
0.002574 0.000198 0.418928 -0.010746 0.419066 0.775761
0.002640 0.000198 0.419057 -0.010455 0.419188 0.761901
0.002706 0.000198 0.419743 -0.010571 0.419876 0.745566
0.002772 0.000198 0.419781 -0.008673 0.419870 0.781170
0.002838 0.000198 0.418662 -0.005753 0.418702 0.776519
0.002904 0.000198 0.419033 -0.006028 0.419077 0.767041
0.002970 0.000198 0.420105 -0.006969 0.420163 0.793217
0.003036 0.000198 0.419919 -0.006259 0.419966 0.785386
0.003102 0.000198 0.418992 -0.005327 0.419026 0.795710
0.003168 0.000198 0.418936 -0.005184 0.418968 0.795783
0.003234 0.000198 0.420573 -0.004463 0.420597 0.799942
0.003300 0.000198 0.420465 -0.004351 0.420487 0.780621
0.003366 0.000198 0.420228 -0.003172 0.420240 0.696515
0.003432 0.000198 0.420789 -0.003584 0.420804 0.741719
0.003498 0.000198 0.419967 -0.002241 0.419973 0.787538
0.003564 0.000198 0.420624 -0.002888 0.420634 0.768584
0.003630 0.000198 0.420382 -0.003895 0.420400 0.757095
0.003696 0.000198 0.420241 -0.002732 0.420250 0.813890
0.003762 0.000198 0.420261 -0.003043 0.420272 0.837230
0.003828 0.000198 0.419568 -0.002106 0.419573 0.852095
0.003894 0.000198 0.419338 -0.000899 0.419339 0.855908
0.003960 0.000198 0.420154 -0.001009 0.420155 0.825262
0.004026 0.000198 0.421897 -0.000975 0.421898 0.830523
0.004092 0.000198 0.421839 0.001348 0.421841 0.865857
0.004158 0.000198 0.419994 0.001320 0.419996 0.893337
0.004224 0.000198 0.419762 0.001382 0.419765 0.880379
0.004290 0.000198 0.420039 0.001547 0.420042 0.885690
0.004356 0.000198 0.420286 0.001585 0.420289 0.857919
0.004422 0.000198 0.419920 0.001646 0.419923 0.798427
0.004488 0.000198 0.419886 0.001901 0.419890 0.815695
0.004554 0.000198 0.419445 0.002695 0.419454 0.828517
0.004620 0.000198 0.420005 0.004104 0.420025 0.818343
0.004686 0.000198 0.419565 0.003762 0.419582 0.810231
0.004752 0.000198 0.419682 0.002567 0.419690 0.817922
0.004818 0.000198 0.420278 0.002124 0.420283 0.849349
0.004884 0.000198 0.419294 0.002710 0.419302 0.814234
0.004950 0.000198 0.419743 0.004547 0.419767 0.783477
0.005016 0.000198 0.419270 0.004786 0.419297 0.804345
0.005082 0.000198 0.417920 0.006537 0.417971 0.794704
0.005148 0.000198 0.418181 0.007127 0.418241 0.767010
0.005214 0.000198 0.418477 0.007562 0.418546 0.757408
0.005280 0.000198 0.417869 0.005898 0.417910 0.777533
0.005346 0.000198 0.417631 0.006201 0.417677 0.778655
0.005412 0.000198 0.416475 0.010142 0.416599 0.755299
0.005478 0.000198 0.417128 0.008266 0.417209 0.761650
0.005544 0.000198 0.418390 0.005950 0.418432 0.778411
0.005610 0.000198 0.417352 0.006568 0.417404 0.786789
0.005676 0.000198 0.416757 0.007737 0.416829 0.762954
0.005742 0.000198 0.414645 0.007471 0.414713 0.774348
0.005808 0.000198 0.415399 0.008044 0.415477 0.755684
0.005874 0.000198 0.416482 0.007025 0.416541 0.772911
0.005940 0.000198 0.416139 0.006815 0.416195 0.760450
0.006006 0.000198 0.414949 0.005636 0.414987 0.677696
0.006072 0.000198 0.411732 0.005199 0.411765 0.674980
0.006138 0.000198 0.412083 0.005257 0.412117 0.674860
0.006204 0.000198 0.414868 0.004774 0.414896 0.686999
0.006270 0.000198 0.414251 0.007765 0.414323 0.644595
0.006336 0.000198 0.415246 0.008558 0.415334 0.631893
0.006402 0.000198 0.415849 0.006668 0.415902 0.652088
0.006468 0.000198 0.415534 0.005831 0.415575 0.670711
0.006534 0.000198 0.413293 0.006769 0.413349 0.605877
0.006600 0.000198 0.416036 0.004975 0.416066 0.607382
0.006666 0.000198 0.413553 0.004550 0.413578 0.603118
0.006732 0.000198 0.410626 0.003903 0.410644 0.595054
0.006798 0.000198 0.409046 0.005831 0.409087 0.591442
0.006864 0.000198 0.408048 0.007528 0.408118 0.554838
0.000066 0.000264 0.000000 0.000000 0.000000 0.219827
0.000132 0.000264 0.000000 0.000000 0.000000 0.234902
0.000198 0.000264 0.000000 0.000000 0.000000 0.220290
0.000264 0.000264 0.000000 0.000000 0.000000 0.224239
0.000330 0.000264 0.000000 0.000000 0.000000 0.248506
0.000396 0.000264 0.000000 0.000000 0.000000 0.229235
0.000462 0.000264 0.000000 0.000000 0.000000 0.263935
0.000528 0.000264 0.000000 0.000000 0.000000 0.345030
0.000594 0.000264 0.000000 0.000000 0.000000 0.363705
0.000660 0.000264 0.000000 0.000000 0.000000 0.332156
0.000726 0.000264 0.410681 -0.012008 0.410857 0.413074
0.000792 0.000264 0.414157 -0.011830 0.414326 0.468214
0.000858 0.000264 0.413027 -0.012302 0.413210 0.487610
0.000924 0.000264 0.408388 -0.013517 0.408612 0.463078
0.000990 0.000264 0.411136 -0.011541 0.411298 0.482079
0.001056 0.000264 0.417428 -0.013040 0.417631 0.515892
0.001122 0.000264 0.415438 -0.012340 0.415621 0.515214
0.001188 0.000264 0.411557 -0.012776 0.411756 0.483710
0.001254 0.000264 0.413981 -0.012482 0.414169 0.467979
0.001320 0.000264 0.405807 -0.034769 0.407294 0.477437
0.001386 0.000264 0.406518 -0.036277 0.408133 0.497737
0.001452 0.000264 0.415829 -0.015525 0.416119 0.521969
0.001518 0.000264 0.416392 -0.014842 0.416656 0.528854
0.001584 0.000264 0.416075 -0.013888 0.416307 0.558677
0.001650 0.000264 0.415759 -0.013007 0.415962 0.551981
0.001716 0.000264 0.416326 -0.016038 0.416634 0.532598
0.001782 0.000264 0.416494 -0.016553 0.416823 0.567879
0.001848 0.000264 0.416801 -0.013344 0.417014 0.578068
0.001914 0.000264 0.416709 -0.014152 0.416949 0.523472
0.001980 0.000264 0.418002 -0.013899 0.418233 0.562751
0.002046 0.000264 0.415441 -0.012152 0.415619 0.648042
0.002112 0.000264 0.414772 -0.013605 0.414995 0.690573
0.002178 0.000264 0.417158 -0.013095 0.417364 0.689449
0.002244 0.000264 0.419852 -0.010676 0.419987 0.665295
0.002310 0.000264 0.421254 -0.007620 0.421323 0.714392
0.002376 0.000264 0.420096 -0.008719 0.420186 0.725444
0.002442 0.000264 0.417981 -0.009344 0.418085 0.687563
0.002508 0.000264 0.418312 -0.008861 0.418406 0.741358
0.002574 0.000264 0.419696 -0.008386 0.419780 0.768564
0.002640 0.000264 0.421076 -0.008308 0.421158 0.752585
0.002706 0.000264 0.420988 -0.010411 0.421117 0.758809
0.002772 0.000264 0.420942 -0.008844 0.421034 0.772442
0.002838 0.000264 0.419794 -0.006496 0.419845 0.785135
0.002904 0.000264 0.419865 -0.008446 0.419950 0.755050
0.002970 0.000264 0.420367 -0.007882 0.420440 0.789037
0.003036 0.000264 0.419253 -0.007772 0.419325 0.797665
0.003102 0.000264 0.420298 -0.006219 0.420344 0.758186
0.003168 0.000264 0.420036 -0.005530 0.420073 0.778870
0.003234 0.000264 0.421660 -0.005001 0.421690 0.836951
0.003300 0.000264 0.422401 -0.004122 0.422421 0.826243
0.003366 0.000264 0.421060 -0.003245 0.421073 0.729466
0.003432 0.000264 0.421533 -0.003833 0.421550 0.714805
0.003498 0.000264 0.420709 -0.001905 0.420713 0.774845
0.003564 0.000264 0.420649 -0.002351 0.420655 0.789583
0.003630 0.000264 0.419905 -0.002733 0.419914 0.773054
0.003696 0.000264 0.420522 -0.002759 0.420531 0.806983
0.003762 0.000264 0.421189 -0.002082 0.421194 0.825771
0.003828 0.000264 0.420864 -0.000786 0.420865 0.827524
0.003894 0.000264 0.420880 -0.001210 0.420881 0.820069
0.003960 0.000264 0.420980 -0.001266 0.420982 0.800564
0.004026 0.000264 0.421607 0.000494 0.421607 0.803811
0.004092 0.000264 0.420903 0.002025 0.420908 0.841618
0.004158 0.000264 0.419632 0.002090 0.419637 0.897213
0.004224 0.000264 0.420398 0.001228 0.420399 0.897970
0.004290 0.000264 0.420576 0.000804 0.420577 0.883517
0.004356 0.000264 0.420298 0.000953 0.420299 0.859366
0.004422 0.000264 0.418868 0.001242 0.418870 0.835128
0.004488 0.000264 0.418412 0.001660 0.418415 0.827795
0.004554 0.000264 0.419024 0.003063 0.419036 0.822775
0.004620 0.000264 0.419816 0.003654 0.419832 0.818396
0.004686 0.000264 0.420029 0.004089 0.420049 0.800934
0.004752 0.000264 0.421383 0.004107 0.421403 0.802564
0.004818 0.000264 0.421275 0.002651 0.421284 0.822189
0.004884 0.000264 0.419289 0.003891 0.419307 0.786205
0.004950 0.000264 0.418250 0.006510 0.418301 0.760830
0.005016 0.000264 0.418375 0.005515 0.418411 0.749662
0.005082 0.000264 0.417720 0.006360 0.417768 0.782429
0.005148 0.000264 0.417105 0.007597 0.417174 0.798285
0.005214 0.000264 0.417946 0.007164 0.418008 0.793881
0.005280 0.000264 0.418206 0.005256 0.418239 0.796589
0.005346 0.000264 0.418593 0.006827 0.418648 0.765339
0.005412 0.000264 0.417425 0.008564 0.417513 0.756114
0.005478 0.000264 0.417493 0.006446 0.417542 0.766458
0.005544 0.000264 0.417775 0.005452 0.417810 0.748269
0.005610 0.000264 0.416628 0.007832 0.416701 0.715415
0.005676 0.000264 0.418068 0.007643 0.418138 0.727881
0.005742 0.000264 0.417285 0.008465 0.417371 0.757368
0.005808 0.000264 0.417558 0.007639 0.417628 0.753620
0.005874 0.000264 0.417952 0.006485 0.418002 0.754928
0.005940 0.000264 0.415373 0.007903 0.415448 0.726034
0.006006 0.000264 0.415661 0.006222 0.415708 0.724573
0.006072 0.000264 0.415443 0.006881 0.415500 0.700168
0.006138 0.000264 0.414754 0.007879 0.414829 0.672738
0.006204 0.000264 0.414484 0.005593 0.414521 0.673558
0.006270 0.000264 0.415069 0.006101 0.415114 0.644241
0.006336 0.000264 0.415759 0.005978 0.415802 0.634757
0.006402 0.000264 0.414631 0.004903 0.414660 0.653059
0.006468 0.000264 0.414201 0.004853 0.414230 0.682369
0.006534 0.000264 0.411422 0.006955 0.411481 0.592237
0.006600 0.000264 0.414387 0.007807 0.414461 0.570073
0.006666 0.000264 0.410207 0.006283 0.410255 0.588944
0.006732 0.000264 0.408320 0.006305 0.408368 0.595637
0.006798 0.000264 0.409466 0.009659 0.409580 0.585813
0.006864 0.000264 0.409832 0.007219 0.409896 0.554027
0.000066 0.000330 0.000000 0.000000 0.000000 0.197166
0.000132 0.000330 0.000000 0.000000 0.000000 0.224135
0.000198 0.000330 0.000000 0.000000 0.000000 0.356959
0.000264 0.000330 0.000000 0.000000 0.000000 0.304686
0.000330 0.000330 0.000000 0.000000 0.000000 0.209659
0.000396 0.000330 0.000000 0.000000 0.000000 0.203581
0.000462 0.000330 0.000000 0.000000 0.000000 0.186013
0.000528 0.000330 0.000000 0.000000 0.000000 0.248217
0.000594 0.000330 0.000000 0.000000 0.000000 0.310962
0.000660 0.000330 0.000000 0.000000 0.000000 0.342019
0.000726 0.000330 0.411310 -0.018056 0.411706 0.400041
0.000792 0.000330 0.412482 -0.018184 0.412883 0.431954
0.000858 0.000330 0.412058 -0.013100 0.412267 0.447239
0.000924 0.000330 0.410364 -0.012189 0.410545 0.461234
0.000990 0.000330 0.412848 -0.011169 0.412999 0.501588
0.001056 0.000330 0.415648 -0.013130 0.415856 0.544793
0.001122 0.000330 0.416266 -0.020011 0.416747 0.510174
0.001188 0.000330 0.414201 -0.019722 0.414670 0.492468
0.001254 0.000330 0.412825 -0.014766 0.413089 0.516834
0.001320 0.000330 0.415795 -0.026216 0.416620 0.513977
0.001386 0.000330 0.417243 -0.027508 0.418148 0.496137
0.001452 0.000330 0.416451 -0.013413 0.416667 0.532475
0.001518 0.000330 0.414955 -0.012162 0.415134 0.569614
0.001584 0.000330 0.414084 -0.012788 0.414281 0.551704
0.001650 0.000330 0.416128 -0.009787 0.416243 0.567837
0.001716 0.000330 0.415863 -0.009218 0.415965 0.621781
0.001782 0.000330 0.414465 -0.016245 0.414783 0.570080
0.001848 0.000330 0.419791 -0.014132 0.420029 0.652030
0.001914 0.000330 0.419194 -0.014256 0.419436 0.638677
0.001980 0.000330 0.419573 -0.016738 0.419906 0.613842
0.002046 0.000330 0.418077 -0.015866 0.418378 0.638244
0.002112 0.000330 0.416733 -0.015876 0.417035 0.702735
0.002178 0.000330 0.416910 -0.015604 0.417202 0.703764
0.002244 0.000330 0.418410 -0.015957 0.418714 0.679285
0.002310 0.000330 0.420093 -0.010715 0.420229 0.717941
0.002376 0.000330 0.418872 -0.010458 0.419002 0.720067
0.002442 0.000330 0.418245 -0.009447 0.418352 0.698385
0.002508 0.000330 0.417689 -0.007582 0.417758 0.718244
0.002574 0.000330 0.419690 -0.007672 0.419760 0.751424
0.002640 0.000330 0.420923 -0.010625 0.421057 0.735030
0.002706 0.000330 0.418712 -0.011903 0.418881 0.736219
0.002772 0.000330 0.419382 -0.010731 0.419519 0.735276
0.002838 0.000330 0.420437 -0.009465 0.420544 0.760558
0.002904 0.000330 0.420028 -0.010890 0.420169 0.789349
0.002970 0.000330 0.419546 -0.009384 0.419651 0.784851
0.003036 0.000330 0.419743 -0.008091 0.419821 0.761345
0.003102 0.000330 0.420698 -0.006759 0.420753 0.737143
0.003168 0.000330 0.419521 -0.006571 0.419572 0.766188
0.003234 0.000330 0.420918 -0.005583 0.420955 0.828337
0.003300 0.000330 0.422170 -0.003889 0.422188 0.820238
0.003366 0.000330 0.420711 -0.003370 0.420725 0.758118
0.003432 0.000330 0.419785 -0.005349 0.419819 0.723165
0.003498 0.000330 0.421199 -0.003829 0.421216 0.770924
0.003564 0.000330 0.421647 -0.002952 0.421657 0.794141
0.003630 0.000330 0.420436 -0.002204 0.420442 0.789620
0.003696 0.000330 0.420780 -0.001909 0.420785 0.827248
0.003762 0.000330 0.421724 -0.001817 0.421728 0.831116
0.003828 0.000330 0.421385 -0.000844 0.421386 0.853541
0.003894 0.000330 0.421579 -0.000862 0.421580 0.861627
0.003960 0.000330 0.421070 -0.001111 0.421071 0.843100
0.004026 0.000330 0.421436 -0.000396 0.421437 0.848210
0.004092 0.000330 0.421150 0.000588 0.421151 0.851670
0.004158 0.000330 0.420995 0.001394 0.420998 0.888032
0.004224 0.000330 0.421726 0.001117 0.421728 0.895834
0.004290 0.000330 0.421693 0.000997 0.421694 0.876768
0.004356 0.000330 0.421019 0.001332 0.421021 0.850010
0.004422 0.000330 0.419052 0.001944 0.419057 0.845224
0.004488 0.000330 0.418347 0.003053 0.418359 0.846006
0.004554 0.000330 0.419060 0.003711 0.419076 0.829170
0.004620 0.000330 0.419509 0.003464 0.419524 0.813015
0.004686 0.000330 0.420377 0.005495 0.420413 0.812979
0.004752 0.000330 0.420980 0.005473 0.421016 0.820696
0.004818 0.000330 0.420631 0.004185 0.420652 0.810446
0.004884 0.000330 0.419978 0.004888 0.420006 0.793943
0.004950 0.000330 0.417468 0.006086 0.417512 0.777315
0.005016 0.000330 0.418189 0.005007 0.418219 0.774211
0.005082 0.000330 0.417678 0.004465 0.417702 0.749234
0.005148 0.000330 0.417075 0.007324 0.417139 0.781318
0.005214 0.000330 0.418326 0.006386 0.418375 0.794463
0.005280 0.000330 0.418368 0.005157 0.418399 0.781789
0.005346 0.000330 0.419164 0.007039 0.419223 0.741231
0.005412 0.000330 0.419525 0.007029 0.419584 0.753538
0.005478 0.000330 0.418205 0.007311 0.418269 0.804528
0.005544 0.000330 0.417672 0.007022 0.417731 0.794013
0.005610 0.000330 0.417215 0.008818 0.417308 0.777382
0.005676 0.000330 0.417380 0.008100 0.417459 0.754544
0.005742 0.000330 0.418022 0.008013 0.418099 0.772627
0.005808 0.000330 0.417392 0.007534 0.417460 0.757763
0.005874 0.000330 0.417806 0.007904 0.417881 0.733404
0.005940 0.000330 0.415898 0.009914 0.416016 0.700707
0.006006 0.000330 0.415823 0.006689 0.415877 0.739344
0.006072 0.000330 0.415855 0.008678 0.415946 0.694046
0.006138 0.000330 0.415096 0.009210 0.415198 0.662556
0.006204 0.000330 0.413052 0.006487 0.413103 0.652302
0.006270 0.000330 0.411901 0.006281 0.411949 0.619225
0.006336 0.000330 0.414644 0.006386 0.414693 0.651878
0.006402 0.000330 0.413294 0.007287 0.413359 0.642642
0.006468 0.000330 0.413626 0.007114 0.413688 0.641074
0.006534 0.000330 0.412517 0.007149 0.412579 0.610572
0.006600 0.000330 0.410188 0.010206 0.410315 0.572278
0.006666 0.000330 0.408854 0.007694 0.408926 0.579691
0.006732 0.000330 0.410431 0.006342 0.410480 0.592652
0.006798 0.000330 0.410946 0.010160 0.411071 0.565601
0.006864 0.000330 0.409680 0.008853 0.409776 0.511718
0.000066 0.000396 0.000000 0.000000 0.000000 0.142624
0.000132 0.000396 0.000000 0.000000 0.000000 0.218659
0.000198 0.000396 0.000000 0.000000 0.000000 0.334486
0.000264 0.000396 0.000000 0.000000 0.000000 0.311216
0.000330 0.000396 0.000000 0.000000 0.000000 0.272146
0.000396 0.000396 0.000000 0.000000 0.000000 0.252167
0.000462 0.000396 0.000000 0.000000 0.000000 0.214562
0.000528 0.000396 0.000000 0.000000 0.000000 0.296321
0.000594 0.000396 0.000000 0.000000 0.000000 0.327784
0.000660 0.000396 0.000000 0.000000 0.000000 0.358930
0.000726 0.000396 0.000000 0.000000 0.000000 0.398460
0.000792 0.000396 0.410560 -0.016069 0.410874 0.428526
0.000858 0.000396 0.412192 -0.010284 0.412320 0.453179
0.000924 0.000396 0.411889 -0.010593 0.412025 0.503681
0.000990 0.000396 0.410805 -0.012394 0.410992 0.507815
0.001056 0.000396 0.412234 -0.014457 0.412488 0.503498
0.001122 0.000396 0.416102 -0.022532 0.416712 0.486658
0.001188 0.000396 0.415901 -0.021515 0.416457 0.503913
0.001254 0.000396 0.412180 -0.014437 0.412433 0.532068
0.001320 0.000396 0.414891 -0.025105 0.415650 0.507445
0.001386 0.000396 0.416783 -0.029396 0.417819 0.463867
0.001452 0.000396 0.416213 -0.018748 0.416635 0.467361
0.001518 0.000396 0.414823 -0.014697 0.415083 0.546214
0.001584 0.000396 0.416892 -0.011579 0.417053 0.603684
0.001650 0.000396 0.417907 -0.009440 0.418014 0.595387
0.001716 0.000396 0.416939 -0.010920 0.417082 0.606285
0.001782 0.000396 0.415755 -0.018503 0.416167 0.586718
0.001848 0.000396 0.420309 -0.016078 0.420616 0.671387
0.001914 0.000396 0.419491 -0.015532 0.419779 0.657133
0.001980 0.000396 0.420821 -0.016893 0.421159 0.641253