TITLE = "B00009"
VARIABLES = "x", "y", "Vx", "Vy", "isValid"
ZONE T="Frame 0", I=101, J=78, F=POINT
-22.466248095 43.7437463403 0 -0 0
-20.5643441081 43.7437463403 0 -0 0
-18.6624401212 43.7437463403 0 -0 0
-16.7605361342 43.7437463403 0 -0 0
-14.8586321473 43.7437463403 0 -0 0
-12.9567281604 43.7437463403 0 -0 0
-11.0548241735 43.7437463403 0 -0 0
-9.1529201865 43.7437463403 0 -0 0
-7.2510161996 43.7437463403 0 -0 0
-5.3491122127 43.7437463403 0 -0 0
-3.4472082257 43.7437463403 0 -0 0
-1.5453042388 43.7437463403 0 -0 0
0.3565997481 43.7437463403 0 -0 0
2.2585037351 43.7437463403 0 -0 0
4.160407722 43.7437463403 0 -0 0
6.0623117089 43.7437463403 0 -0 0
7.9642156959 43.7437463403 0 -0 0
9.8661196828 43.7437463403 0 -0 0
11.7680236697 43.7437463403 0 -0 0
13.6699276567 43.7437463403 0 -0 0
15.5718316436 43.7437463403 0 -0 0
17.4737356305 43.7437463403 0 -0 0
19.3756396174 43.7437463403 0 -0 0
21.2775436044 43.7437463403 0 -0 0
23.1794475913 43.7437463403 0 -0 0
25.0813515782 43.7437463403 0 -0 0
26.9832555652 43.7437463403 0 -0 0
28.8851595521 43.7437463403 0 -0 0
30.787063539 43.7437463403 0 -0 0
32.688967526 43.7437463403 0 -0 0
34.5908715129 43.7437463403 0 -0 0
36.4927754998 43.7437463403 0 -0 0
38.3946794868 43.7437463403 0 -0 0
40.2965834737 43.7437463403 0 -0 0
42.1984874606 43.7437463403 0 -0 0
44.1003914475 43.7437463403 0 -0 0
46.0022954345 43.7437463403 0 -0 0
47.9041994214 43.7437463403 0 -0 0
49.8061034083 43.7437463403 0 -0 0
51.7080073953 43.7437463403 0 -0 0
53.6099113822 43.7437463403 0 -0 0
55.5118153691 43.7437463403 0 -0 0
57.4137193561 43.7437463403 0 -0 0
59.315623343 43.7437463403 0 -0 0
61.2175273299 43.7437463403 0 -0 0
63.1194313169 43.7437463403 0 -0 0
65.0213353038 43.7437463403 0 -0 0
66.9232392907 43.7437463403 0 -0 0
68.8251432776 43.7437463403 0 -0 0
70.7270472646 43.7437463403 0 -0 0
72.6289512515 43.7437463403 0 -0 0
74.5308552384 43.7437463403 0 -0 0
76.4327592254 43.7437463403 0 -0 0
78.3346632123 43.7437463403 0 -0 0
80.2365671992 43.7437463403 0 -0 0
82.1384711862 43.7437463403 0 -0 0
84.0403751731 43.7437463403 0 -0 0
85.94227916 43.7437463403 0 -0 0
87.844183147 43.7437463403 0 -0 0
89.7460871339 43.7437463403 0 -0 0
91.6479911208 43.7437463403 0 -0 0
93.5498951077 43.7437463403 0 -0 0
95.4517990947 43.7437463403 0 -0 0
97.3537030816 43.7437463403 0 -0 0
99.2556070685 43.7437463403 0 -0 0
101.1575110555 43.7437463403 0 -0 0
103.0594150424 43.7437463403 0 -0 0
104.9613190293 43.7437463403 0 -0 0
106.8632230163 43.7437463403 0 -0 0
108.7651270032 43.7437463403 0 -0 0
110.6670309901 43.7437463403 0 -0 0
112.5689349771 43.7437463403 0 -0 0
114.470838964 43.7437463403 0 -0 0
116.3727429509 43.7437463403 0 -0 0
118.2746469378 43.7437463403 0 -0 0
120.1765509248 43.7437463403 0 -0 0
122.0784549117 43.7437463403 0 -0 0
123.9803588986 43.7437463403 0 -0 0
125.8822628856 43.7437463403 0 -0 0
127.7841668725 43.7437463403 0 -0 0
129.6860708594 43.7437463403 0 -0 0
131.5879748464 43.7437463403 0 -0 0
133.4898788333 43.7437463403 0 -0 0
135.3917828202 43.7437463403 0 -0 0
137.2936868072 43.7437463403 0 -0 0
139.1955907941 43.7437463403 0 -0 0
141.097494781 43.7437463403 0 -0 0
142.9993987679 43.7437463403 0 -0 0
144.9013027549 43.7437463403 0 -0 0
146.8032067418 43.7437463403 0 -0 0
148.7051107287 43.7437463403 0 -0 0
150.6070147157 43.7437463403 0 -0 0
152.5089187026 43.7437463403 0 -0 0
154.4108226895 43.7437463403 0 -0 0
156.3127266765 43.7437463403 0 -0 0
158.2146306634 43.7437463403 0 -0 0
160.1165346503 43.7437463403 0 -0 0
162.0184386373 43.7437463403 0 -0 0
163.9203426242 43.7437463403 0 -0 0
165.8222466111 43.7437463403 0 -0 0
167.724150598 43.7437463403 0 -0 0
-22.466248095 41.8418423533 0 -0 0
-20.5643441081 41.8418423533 10.0291262613 1.1943097808 1
-18.6624401212 41.8418423533 9.6562020309 1.3544151577 1
-16.7605361342 41.8418423533 9.4611810609 2.8657993348 1
-14.8586321473 41.8418423533 9.5663057147 -3.578111444 1
-12.9567281604 41.8418423533 9.3174376449 3.4944878427 1
-11.0548241735 41.8418423533 10.390525323 -4.3178761273 1
-9.1529201865 41.8418423533 9.9659267704 4.7550012157 1
-7.2510161996 41.8418423533 9.345154731 4.2529195205 1
-5.3491122127 41.8418423533 8.8947851454 3.1803419728 1
-3.4472082257 41.8418423533 0 -0 0
-1.5453042388 41.8418423533 0 -0 0
0.3565997481 41.8418423533 0 -0 0
2.2585037351 41.8418423533 0 -0 0
4.160407722 41.8418423533 0 -0 0
6.0623117089 41.8418423533 0 -0 0
7.9642156959 41.8418423533 0 -0 0
9.8661196828 41.8418423533 0 -0 0
11.7680236697 41.8418423533 0 -0 0
13.6699276567 41.8418423533 0 -0 0
15.5718316436 41.8418423533 0 -0 0
17.4737356305 41.8418423533 0 -0 0
19.3756396174 41.8418423533 9.7501227093 0.5295153755 1
21.2775436044 41.8418423533 10.2043655073 2.8008805155 1
23.1794475913 41.8418423533 9.6850338465 3.5070332722 1
25.0813515782 41.8418423533 9.6921378849 0.5291375011 1
26.9832555652 41.8418423533 9.8253574993 1.5234005826 1
28.8851595521 41.8418423533 8.5123951616 -0.7539349727 1
30.787063539 41.8418423533 8.6670213599 -0.2724663252 1
32.688967526 41.8418423533 7.9041118706 -1.3131890623 1
34.5908715129 41.8418423533 7.7397176194 2.0087991237 1
36.4927754998 41.8418423533 8.8217420268 1.2812208893 1
38.3946794868 41.8418423533 9.1082463854 -0.5227703177 1
40.2965834737 41.8418423533 9.9729174466 -0.6180135565 1
42.1984874606 41.8418423533 9.658620427 1.8628640362 1
44.1003914475 41.8418423533 9.3561508756 4.3543787929 1
46.0022954345 41.8418423533 7.9038662522 2.6803007993 1
47.9041994214 41.8418423533 8.0337983595 -0.2285573217 1
49.8061034083 41.8418423533 9.3949585749 -0.3394445599 1
51.7080073953 41.8418423533 10.3679662222 1.350220752 1
53.6099113822 41.8418423533 9.5399111889 0.6857853274 1
55.5118153691 41.8418423533 9.2672181391 -1.8013460864 1
57.4137193561 41.8418423533 9.8195571275 1.3668850124 1
59.315623343 41.8418423533 10.1372739103 3.0084091277 1
61.2175273299 41.8418423533 10.6970381303 1.1046024018 1
63.1194313169 41.8418423533 10.9367427463 1.041535167 1
65.0213353038 41.8418423533 10.4249874669 0.7317348526 1
66.9232392907 41.8418423533 10.5537670573 3.0199531901 1
68.8251432776 41.8418423533 11.7652701226 2.112280024 1
70.7270472646 41.8418423533 10.3396634308 -1.1781934383 1
72.6289512515 41.8418423533 10.0424463334 2.5433969097 1
74.5308552384 41.8418423533 10.5008457497 3.4434370133 1
76.4327592254 41.8418423533 10.367512773 2.1265825694 1
78.3346632123 41.8418423533 9.6692575909 -2.7807587045 1
80.2365671992 41.8418423533 8.9122051545 -2.9745893702 1
82.1384711862 41.8418423533 9.1194314672 -4.399591463 1
84.0403751731 41.8418423533 10.9417117945 -0.733454181 1
85.94227916 41.8418423533 11.6869934438 -1.3228059654 1
87.844183147 41.8418423533 9.596837965 -0.3075708556 1
89.7460871339 41.8418423533 9.998934098 -2.0510454799 1
91.6479911208 41.8418423533 10.4170521048 5.7354529884 1
93.5498951077 41.8418423533 0 -0 0
95.4517990947 41.8418423533 0 -0 0
97.3537030816 41.8418423533 0 -0 0
99.2556070685 41.8418423533 0 -0 0
101.1575110555 41.8418423533 0 -0 0
103.0594150424 41.8418423533 10.6068773021 2.661274824 1
104.9613190293 41.8418423533 9.5184668176 -3.5963249894 1
106.8632230163 41.8418423533 8.7807993372 -1.5819522185 1
108.7651270032 41.8418423533 10.360106435 3.5014218376 1
110.6670309901 41.8418423533 10.6394878615 4.3792807148 1
112.5689349771 41.8418423533 10.5335885651 4.3402651846 1
114.470838964 41.8418423533 11.4856619715 3.7435637434 1
116.3727429509 41.8418423533 11.0181746763 2.6386023609 1
118.2746469378 41.8418423533 10.8494915509 1.7915402461 1
120.1765509248 41.8418423533 10.8714082652 1.9776622744 1
122.0784549117 41.8418423533 10.5676539409 1.7792404349 1
123.9803588986 41.8418423533 11.3238372662 1.5912668221 1
125.8822628856 41.8418423533 12.1950455542 1.9458263574 1
127.7841668725 41.8418423533 11.490876638 2.0319817172 1
129.6860708594 41.8418423533 10.5802371579 1.704666925 1
131.5879748464 41.8418423533 10.4017292985 2.4914580755 1
133.4898788333 41.8418423533 9.1767927988 -3.4914648476 1
135.3917828202 41.8418423533 9.5995775543 -4.7466879792 1
137.2936868072 41.8418423533 10.3769596326 4.1964461937 1
139.1955907941 41.8418423533 10.0848438394 3.6539319393 1
141.097494781 41.8418423533 9.9021226806 2.8538207168 1
142.9993987679 41.8418423533 10.5780454865 3.0962271347 1
144.9013027549 41.8418423533 9.7968279832 3.554626551 1
146.8032067418 41.8418423533 9.1447301573 -5.0066277686 1
148.7051107287 41.8418423533 9.8607832229 3.1521903311 1
150.6070147157 41.8418423533 9.6550873015 -4.0410264592 1
152.5089187026 41.8418423533 9.713865662 2.4569959316 1
154.4108226895 41.8418423533 8.9985683452 3.294195525 1
156.3127266765 41.8418423533 8.7593171784 -4.9324321331 1
158.2146306634 41.8418423533 8.9886113551 -5.6675678551 1
160.1165346503 41.8418423533 9.847179745 -5.65230173 1
162.0184386373 41.8418423533 9.9520776742 4.0764521828 1
163.9203426242 41.8418423533 10.93986021 2.8587708713 1
165.8222466111 41.8418423533 10.6587405614 2.9262781301 1
167.724150598 41.8418423533 0 -0 0
-22.466248095 39.9399383664 0 -0 0
-20.5643441081 39.9399383664 10.6702279427 1.2279406011 1
-18.6624401212 39.9399383664 10.6095791039 2.090268841 1
-16.7605361342 39.9399383664 9.7955432103 4.3491263389 1
-14.8586321473 39.9399383664 8.8371215143 6.3003940875 1
-12.9567281604 39.9399383664 9.0469551602 2.2809064682 1
-11.0548241735 39.9399383664 10.9518199343 -2.1374653517 1
-9.1529201865 39.9399383664 10.6651077448 -3.2865813561 1
-7.2510161996 39.9399383664 9.3571711364 3.4208968062 1
-5.3491122127 39.9399383664 9.3136400073 1.6205331932 1
-3.4472082257 39.9399383664 0 -0 0
-1.5453042388 39.9399383664 0 -0 0
0.3565997481 39.9399383664 0 -0 0
2.2585037351 39.9399383664 0 -0 0
4.160407722 39.9399383664 0 -0 0
6.0623117089 39.9399383664 0 -0 0
7.9642156959 39.9399383664 0 -0 0
9.8661196828 39.9399383664 0 -0 0
11.7680236697 39.9399383664 0 -0 0
13.6699276567 39.9399383664 0 -0 0
15.5718316436 39.9399383664 0 -0 0
17.4737356305 39.9399383664 0 -0 0
19.3756396174 39.9399383664 8.8869253582 -1.0633952002 1
21.2775436044 39.9399383664 10.2878379589 3.2479248065 1
23.1794475913 39.9399383664 10.1996231838 4.4771690742 1
25.0813515782 39.9399383664 10.8717105647 0.1064850017 1
26.9832555652 39.9399383664 9.6746800883 2.9635365445 1
28.8851595521 39.9399383664 9.1998053488 1.7521279478 1
30.787063539 39.9399383664 9.1849737792 3.4434370133 1
32.688967526 39.9399383664 9.5083964653 -1.7112230456 1
34.5908715129 39.9399383664 10.9722629385 1.271887392 1
36.4927754998 39.9399383664 10.1784244308 -0.57591835 1
38.3946794868 39.9399383664 8.6275523804 0.7215889253 1
40.2965834737 39.9399383664 9.6269167661 1.3974739438 1
42.1984874606 39.9399383664 10.4708236298 1.3363527621 1
44.1003914475 39.9399383664 9.9738243451 2.3552532534 1
46.0022954345 39.9399383664 9.4813973405 1.8297622401 1
47.9041994214 39.9399383664 9.2545971347 1.8147417333 1
49.8061034083 39.9399383664 9.6107248487 1.1022784744 1
51.7080073953 39.9399383664 10.502772909 -0.3102726574 1
53.6099113822 39.9399383664 9.0996875306 -0.7700513152 1
55.5118153691 39.9399383664 9.5578602222 -1.6900242926 1
57.4137193561 39.9399383664 9.3126953213 0.401756046 1
59.315623343 39.9399383664 9.9634894807 0.2261011382 1
61.2175273299 39.9399383664 10.8388354932 0.6077920543 1
63.1194313169 39.9399383664 9.9945885425 0.8880425919 1
65.0213353038 39.9399383664 10.2901052052 0.23190151 1
66.9232392907 39.9399383664 10.635350137 2.5188917558 1
68.8251432776 39.9399383664 10.4981439478 1.681314288 1
70.7270472646 39.9399383664 9.3113349735 -2.9302835986 1
72.6289512515 39.9399383664 9.7108804544 1.7341600208 1
74.5308552384 39.9399383664 10.1900440681 3.6541019828 1
76.4327592254 39.9399383664 11.0082176862 1.920754392 1
78.3346632123 39.9399383664 10.6210286978 -2.3571993065 1
80.2365671992 39.9399383664 10.2171754489 -3.1612026352 1
82.1384711862 39.9399383664 9.49394277 -4.811039987 1
84.0403751731 39.9399383664 9.9082253519 -4.031617387 1
85.94227916 39.9399383664 9.7431131394 -0.2957433873 1
87.844183147 39.9399383664 9.2899094959 -0.5336153126 1
89.7460871339 39.9399383664 9.9152916029 -2.7016695958 1
91.6479911208 39.9399383664 10.2400368492 3.3998114155 1
93.5498951077 39.9399383664 9.8116217654 0.5318770904 1
95.4517990947 39.9399383664 0 -0 0
97.3537030816 39.9399383664 0 -0 0
99.2556070685 39.9399383664 0 -0 0
101.1575110555 39.9399383664 0 -0 0
103.0594150424 39.9399383664 11.0029463386 1.0458051476 1
104.9613190293 39.9399383664 11.527417091 1.0913579047 1
106.8632230163 39.9399383664 10.9775531799 2.3108341195 1
108.7651270032 39.9399383664 10.5143358652 3.4116199901 1
110.6670309901 39.9399383664 10.3097168858 3.2265371163 1
112.5689349771 39.9399383664 10.5043033003 3.1896943638 1
114.470838964 39.9399383664 11.651983382 3.8055162488 1
116.3727429509 39.9399383664 11.4888739038 3.7419388836 1
118.2746469378 39.9399383664 10.9852996048 3.2125746578 1
120.1765509248 39.9399383664 10.6997777196 2.6634664955 1
122.0784549117 39.9399383664 9.8650909908 3.210609711 1
123.9803588986 39.9399383664 10.7102259463 3.6054884432 1
125.8822628856 39.9399383664 10.5709036606 1.808771318 1
127.7841668725 39.9399383664 10.7903353159 0.3154684302 1
129.6860708594 39.9399383664 10.9825978029 0.9890862024 1
131.5879748464 39.9399383664 10.9026773705 3.479051674 1
133.4898788333 39.9399383664 10.5693543756 4.0237009187 1
135.3917828202 39.9399383664 10.7410416024 3.1679287993 1
137.2936868072 39.9399383664 11.0333085454 3.6688201901 1
139.1955907941 39.9399383664 10.1808428268 3.873609213 1
141.097494781 39.9399383664 9.4730085291 2.1385989749 1
142.9993987679 39.9399383664 9.7197982899 2.2008348861 1
144.9013027549 39.9399383664 9.4610488048 -4.1982788845 1
146.8032067418 39.9399383664 10.4949509093 3.0983810187 1
148.7051107287 39.9399383664 10.4048278685 3.445609791 1
150.6070147157 39.9399383664 9.5894505208 3.4155309899 1
152.5089187026 39.9399383664 9.0063336638 -2.2327463779 1
154.4108226895 39.9399383664 9.6046977522 -3.9739537559 1
156.3127266765 39.9399383664 9.794352906 -6.4082016495 1
158.2146306634 39.9399383664 9.6039420035 -5.5545267329 1
160.1165346503 39.9399383664 9.4472941772 -4.0299169523 1
162.0184386373 39.9399383664 9.6093833946 3.9404740854 1
163.9203426242 39.9399383664 10.3833079223 3.6616594705 1
165.8222466111 39.9399383664 10.4240427809 -3.5414954161 1
167.724150598 39.9399383664 0 -0 0
-22.466248095 38.0380343795 0 -0 0
-20.5643441081 38.0380343795 9.3313623159 3.6516080119 1
-18.6624401212 38.0380343795 9.8422484843 -0.202427308 1
-16.7605361342 38.0380343795 8.4652931195 1.9785124917 1
-14.8586321473 38.0380343795 8.5333294025 3.5572338843 1
-12.9567281604 38.0380343795 9.1586548283 4.0871649216 1
-11.0548241735 38.0380343795 9.0368659141 5.8980901236 1
-9.1529201865 38.0380343795 9.1527977754 5.1295691997 1
-7.2510161996 38.0380343795 9.2252551887 1.9870146654 1
-5.3491122127 38.0380343795 8.6400411288 1.3087112508 1
-3.4472082257 38.0380343795 0 -0 0
-1.5453042388 38.0380343795 0 -0 0
0.3565997481 38.0380343795 0 -0 0
2.2585037351 38.0380343795 0 -0 0
4.160407722 38.0380343795 0 -0 0
6.0623117089 38.0380343795 0 -0 0
7.9642156959 38.0380343795 0 -0 0
9.8661196828 38.0380343795 0 -0 0
11.7680236697 38.0380343795 0 -0 0
13.6699276567 38.0380343795 0 -0 0
15.5718316436 38.0380343795 0 -0 0
17.4737356305 38.0380343795 0 -0 0
19.3756396174 38.0380343795 9.1579746544 1.5247231429 1
21.2775436044 38.0380343795 8.7204716916 2.5493673249 1
23.1794475913 38.0380343795 9.5912076367 4.2892521426 1
25.0813515782 38.0380343795 10.9958611938 1.8614470073 1
26.9832555652 38.0380343795 9.8893883138 1.4436501937 1
28.8851595521 38.0380343795 10.3350533633 2.3144050324 1
30.787063539 38.0380343795 9.8495981411 3.5532850969 1
32.688967526 38.0380343795 9.1473185968 1.12801172 1
34.5908715129 38.0380343795 10.6828678409 1.6510843372 1
36.4927754998 38.0380343795 10.6934294299 0.5924125669 1
38.3946794868 38.0380343795 9.3526744312 -0.0502761869 1
40.2965834737 38.0380343795 9.669786615 2.0858666045 1
42.1984874606 38.0380343795 9.6964645466 0.2599397894 1
44.1003914475 38.0380343795 9.2359112463 3.2713341247 1
46.0022954345 38.0380343795 9.5527022369 1.7230694076 1
47.9041994214 38.0380343795 10.0210208558 0.4843215991 1
49.8061034083 38.0380343795 8.8529166635 0.4245607651 1
51.7080073953 38.0380343795 9.2657822164 0.3872078822 1
53.6099113822 38.0380343795 9.3109193117 1.0747881129 1
55.5118153691 38.0380343795 9.7169453383 0.1660002173 1
57.4137193561 38.0380343795 9.4489190371 -1.446994382 1
59.315623343 38.0380343795 10.3704979806 3.5435359378 1
61.2175273299 38.0380343795 10.1690720398 1.9433512802 1
63.1194313169 38.0380343795 8.9389964484 -0.5903342578 1
65.0213353038 38.0380343795 9.799265273 0.8138469564 1
66.9232392907 38.0380343795 9.9535702781 -0.7480779197 1
68.8251432776 38.0380343795 10.3148559774 1.9496428887 1
70.7270472646 38.0380343795 9.4186701926 1.14106728 1
72.6289512515 38.0380343795 9.3583614407 0.0419062693 1
74.5308552384 38.0380343795 10.038233034 0.6369450631 1
76.4327592254 38.0380343795 10.1692042958 0.7322071956 1
78.3346632123 38.0380343795 10.2221822845 1.8102828156 1
80.2365671992 38.0380343795 10.7419296072 -1.6048514062 1
82.1384711862 38.0380343795 10.0195282519 -3.0860434201 1
84.0403751731 38.0380343795 9.6848826967 -2.604007961 1
85.94227916 38.0380343795 9.3538269481 -0.2412161136 1
87.844183147 38.0380343795 9.6897005951 -1.9226437639 1
89.7460871339 38.0380343795 9.4092233329 -3.8165123934 1
91.6479911208 38.0380343795 9.4237714968 -2.6032522122 1
93.5498951077 38.0380343795 7.0207927085 0.7236672345 1
95.4517990947 38.0380343795 0 -0 0
97.3537030816 38.0380343795 0 -0 0
99.2556070685 38.0380343795 0 -0 0
101.1575110555 38.0380343795 0 -0 0
103.0594150424 38.0380343795 10.110104742 1.9258368025 1
104.9613190293 38.0380343795 11.7664415332 0.169854536 1
106.8632230163 38.0380343795 11.4819588025 2.9723788051 1
108.7651270032 38.0380343795 10.5118796817 4.1051328486 1
110.6670309901 38.0380343795 10.6606677207 3.0117911034 1
112.5689349771 38.0380343795 11.3734521729 2.9624407088 1
114.470838964 38.0380343795 11.1714783142 2.6200487286 1
116.3727429509 38.0380343795 10.4378540897 3.270975144 1
118.2746469378 38.0380343795 10.2154372268 1.9810631438 1
120.1765509248 38.0380343795 10.4166175493 2.6696258479 1
122.0784549117 38.0380343795 9.5274224405 -1.9227382325 1
123.9803588986 38.0380343795 10.1197783262 3.3935953819 1
125.8822628856 38.0380343795 9.9582559204 4.0939855542 1
127.7841668725 38.0380343795 10.6102214904 2.9602112499 1
129.6860708594 38.0380343795 10.9183591575 1.8366962351 1
131.5879748464 38.0380343795 9.8807160967 3.0518646819 1
133.4898788333 38.0380343795 9.9605420605 -5.6574597154 1
135.3917828202 38.0380343795 10.4581459442 1.2310769585 1
137.2936868072 38.0380343795 10.5727930325 2.7636787823 1
139.1955907941 38.0380343795 11.1644498507 2.2661504735 1
141.097494781 38.0380343795 10.0828033177 1.90352332 1
142.9993987679 38.0380343795 9.2183400874 -3.3354594078 1
144.9013027549 38.0380343795 9.4363169263 -4.2113155507 1
146.8032067418 38.0380343795 10.2675649982 1.821694622 1
148.7051107287 38.0380343795 10.6482734409 1.4553642996 1
150.6070147157 38.0380343795 10.4340942396 0.6264212615 1
152.5089187026 38.0380343795 9.3961677729 2.5829603578 1
154.4108226895 38.0380343795 10.1338352534 -4.2503121873 1
156.3127266765 38.0380343795 10.5772519503 2.7876926995 1
158.2146306634 38.0380343795 10.2835112972 3.2219081551 1
160.1165346503 38.0380343795 9.675643668 -2.9047392902 1
162.0184386373 38.0380343795 9.4634483072 -2.8394992776 1
163.9203426242 38.0380343795 9.0202583349 -4.0095684167 1
165.8222466111 38.0380343795 9.7855295391 -4.4025199895 1
167.724150598 38.0380343795 0 -0 0
-22.466248095 36.1361303926 0 -0 0
-20.5643441081 36.1361303926 7.8524753359 2.5870414011 1
-18.6624401212 36.1361303926 8.1579867761 3.6828204361 1
-16.7605361342 36.1361303926 8.904099749 3.3723588415 1
-14.8586321473 36.1361303926 8.9805626307 2.8378744178 1
-12.9567281604 36.1361303926 9.7792001432 4.5087593728 1
-11.0548241735 36.1361303926 8.9550372161 5.6705908502 1
-9.1529201865 36.1361303926 8.5976436228 5.4158657274 1
-7.2510161996 36.1361303926 9.5514363577 1.2878525848 1
-5.3491122127 36.1361303926 8.5437587356 0.169382193 1
-3.4472082257 36.1361303926 7.6428117334 0.1913744822 1
-1.5453042388 36.1361303926 0 -0 0
0.3565997481 36.1361303926 0 -0 0
2.2585037351 36.1361303926 0 -0 0
4.160407722 36.1361303926 0 -0 0
6.0623117089 36.1361303926 0 -0 0
7.9642156959 36.1361303926 0 -0 0
9.8661196828 36.1361303926 0 -0 0
11.7680236697 36.1361303926 0 -0 0
13.6699276567 36.1361303926 0 -0 0
15.5718316436 36.1361303926 0 -0 0
17.4737356305 36.1361303926 0 -0 0
19.3756396174 36.1361303926 9.0258697695 3.9517536358 1
21.2775436044 36.1361303926 8.6745032727 2.157228182 1
23.1794475913 36.1361303926 9.2590938398 1.2011870946 1
25.0813515782 36.1361303926 9.4072583861 2.9267315794 1
26.9832555652 36.1361303926 9.7859263072 2.0046425054 1
28.8851595521 36.1361303926 10.9821632474 -1.4666627437 1
30.787063539 36.1361303926 9.9312756894 3.9676432537 1
32.688967526 36.1361303926 8.8211941089 3.0628797203 1
34.5908715129 36.1361303926 9.4287216512 1.3730821523 1
36.4927754998 36.1361303926 10.1682407161 1.0374163362 1
38.3946794868 36.1361303926 9.7237470772 -0.345093782 1
40.2965834737 36.1361303926 9.6801970543 0.1939629218 1
42.1984874606 36.1361303926 9.2867164574 -0.2337719882 1
44.1003914475 36.1361303926 8.4888724812 2.8152208484 1
46.0022954345 36.1361303926 9.591453255 0.8615158101 1
47.9041994214 36.1361303926 10.003506378 0.1549096041 1
49.8061034083 36.1361303926 9.0827587581 -0.5103760379 1
51.7080073953 36.1361303926 9.5949674868 -0.7851851843 1
53.6099113822 36.1361303926 9.7528434048 1.7509376434 1
55.5118153691 36.1361303926 10.1642163539 1.8820033738 1
57.4137193561 36.1361303926 9.4413615494 -0.6171633391 1
59.315623343 36.1361303926 10.2322526369 2.7831204194 1
61.2175273299 36.1361303926 9.91629297 2.5593621024 1
63.1194313169 36.1361303926 9.7970358141 -0.6311257976 1
65.0213353038 36.1361303926 10.3043321758 2.2429111988 1
66.9232392907 36.1361303926 9.5244372329 -1.8231872258 1
68.8251432776 36.1361303926 11.258502785 1.3566635103 1
70.7270472646 36.1361303926 10.2020604736 0.5188782116 1
72.6289512515 36.1361303926 8.9927679734 1.2503296584 1
74.5308552384 36.1361303926 9.9870121611 3.532955455 1
76.4327592254 36.1361303926 9.896775758 0.2390433359 1
78.3346632123 36.1361303926 9.3628770396 2.4587341537 1
80.2365671992 36.1361303926 9.4984961564 -1.6410139849 1
82.1384711862 36.1361303926 9.790989824 -3.7586409314 1
84.0403751731 36.1361303926 9.6128220515 -2.4521024583 1
85.94227916 36.1361303926 10.0713915113 -0.1723485069 1
87.844183147 36.1361303926 10.3489780344 -3.0175159004 1
89.7460871339 36.1361303926 9.0223177503 -3.4005104831 1
91.6479911208 36.1361303926 7.9968611383 -1.0501318093 1
93.5498951077 36.1361303926 6.7031326069 2.5205921905 1
95.4517990947 36.1361303926 0 -0 0
97.3537030816 36.1361303926 0 -0 0
99.2556070685 36.1361303926 0 -0 0
101.1575110555 36.1361303926 0 -0 0
103.0594150424 36.1361303926 9.1363980271 -0.8529191678 1
104.9613190293 36.1361303926 10.308356538 2.957717279 1
106.8632230163 36.1361303926 11.0567745447 3.4737236452 1
108.7651270032 36.1361303926 10.6275092435 2.3388535051 1
110.6670309901 36.1361303926 10.8818187045 1.9467143622 1
112.5689349771 36.1361303926 11.1847039177 4.4066955014 1
114.470838964 36.1361303926 10.8917379071 3.8154165577 1
116.3727429509 36.1361303926 10.4374762153 2.9579251099 1
118.2746469378 36.1361303926 10.3438767302 2.3019918589 1
120.1765509248 36.1361303926 10.4409526597 2.3925872427 1
122.0784549117 36.1361303926 9.9682318042 -1.6094803675 1
123.9803588986 36.1361303926 9.9590116692 2.5466466294 1
125.8822628856 36.1361303926 9.6034696605 -3.6350004327 1
127.7841668725 36.1361303926 10.4140668972 2.9560546317 1
129.6860708594 36.1361303926 10.7046334054 3.7058896673 1
131.5879748464 36.1361303926 9.7328349561 3.3517835812 1
133.4898788333 36.1361303926 9.0555895899 -4.5409920578 1
135.3917828202 36.1361303926 9.7937672007 -4.5696160425 1
137.2936868072 36.1361303926 10.9415039636 1.3534893654 1
139.1955907941 36.1361303926 11.5265479799 1.6816732687 1
141.097494781 36.1361303926 10.4116862886 3.1098495063 1
142.9993987679 36.1361303926 9.8951508982 -4.2159822994 1
144.9013027549 36.1361303926 10.2171754489 2.4407284393 1
146.8032067418 36.1361303926 10.2194426953 1.8813231999 1
148.7051107287 36.1361303926 10.1068928097 1.7968115938 1
150.6070147157 36.1361303926 10.0538581398 -1.4574992899 1
152.5089187026 36.1361303926 9.7292829369 1.3120176517 1
154.4108226895 36.1361303926 9.8905597244 -3.454017496 1
156.3127266765 36.1361303926 10.8441446283 2.558719716 1
158.2146306634 36.1361303926 10.6623681555 2.1059695217 1
160.1165346503 36.1361303926 10.4269902011 2.1922760312 1
162.0184386373 36.1361303926 9.6892849333 -3.5229039964 1
163.9203426242 36.1361303926 9.3315323594 -4.5262549568 1
165.8222466111 36.1361303926 9.6285038385 -4.7540943172 1
167.724150598 36.1361303926 0 -0 0
-22.466248095 34.2342264056 0 -0 0
-20.5643441081 34.2342264056 7.4733539655 2.7401183144 1
-18.6624401212 34.2342264056 8.1109225214 3.8325720548 1
-16.7605361342 34.2342264056 9.1434075969 3.0719298118 1
-14.8586321473 34.2342264056 8.753762425 1.449885121 1
-12.9567281604 34.2342264056 9.9732197461 2.9951268431 1
-11.0548241735 34.2342264056 8.7539324684 1.6977896112 1
-9.1529201865 34.2342264056 9.319780466 3.7795373849 1
-7.2510161996 34.2342264056 10.3529268217 -0.5495238242 1
-5.3491122127 34.2342264056 7.5929701021 2.4323963091 1
-3.4472082257 34.2342264056 6.701375491 3.9432514621 1
-1.5453042388 34.2342264056 0 -0 0
0.3565997481 34.2342264056 0 -0 0
2.2585037351 34.2342264056 0 -0 0
4.160407722 34.2342264056 0 -0 0
6.0623117089 34.2342264056 0 -0 0
7.9642156959 34.2342264056 0 -0 0
9.8661196828 34.2342264056 0 -0 0
11.7680236697 34.2342264056 0 -0 0
13.6699276567 34.2342264056 0 -0 0
15.5718316436 34.2342264056 0 -0 0
17.4737356305 34.2342264056 0 -0 0
19.3756396174 34.2342264056 8.443055212 3.5120401078 1
21.2775436044 34.2342264056 9.0886724923 3.8191575141 1
23.1794475913 34.2342264056 9.9502449835 2.1138293089 1
25.0813515782 34.2342264056 9.0547015851 0.5815864657 1
26.9832555652 34.2342264056 9.1043164918 0.4448148321 1
28.8851595521 34.2342264056 10.2072562463 -1.5017861678 1
30.787063539 34.2342264056 10.3157061948 -1.5193195392 1
32.688967526 34.2342264056 9.2221944062 3.5514146187 1
34.5908715129 34.2342264056 9.252688869 0.5852140598 1
36.4927754998 34.2342264056 9.5905463565 0.9388666966 1
38.3946794868 34.2342264056 9.4403223948 1.1283518069 1
40.2965834737 34.2342264056 9.8370149241 1.6022629667 1
42.1984874606 34.2342264056 9.6818030205 2.4443749271 1
44.1003914475 34.2342264056 9.6705612575 2.3322784908 1
46.0022954345 34.2342264056 10.3507729377 2.8760397307 1
47.9041994214 34.2342264056 10.2029862658 3.7528027721 1
49.8061034083 34.2342264056 11.2164264723 -0.4130167027 1
51.7080073953 34.2342264056 10.1118807516 0.3539549363 1
53.6099113822 34.2342264056 9.6139367809 1.1472455262 1
55.5118153691 34.2342264056 9.9102280861 1.9605634584 1
57.4137193561 34.2342264056 9.7083864834 0.911924253 1
59.315623343 34.2342264056 10.5692221196 1.2525591172 1
61.2175273299 34.2342264056 10.0150315468 2.5006593167 1
63.1194313169 34.2342264056 10.5852439935 2.3523058332 1
65.0213353038 34.2342264056 11.1809440675 3.9183117527 1
66.9232392907 34.2342264056 9.8257920548 0.5824366831 1
68.8251432776 34.2342264056 8.5546604116 1.9322795607 1
70.7270472646 34.2342264056 11.148276827 2.8243843023 1
72.6289512515 34.2342264056 10.1043232639 0.2147838004 1
74.5308552384 34.2342264056 10.8411594207 5.7090395689 1
76.4327592254 34.2342264056 11.1732921113 5.5770291525 1
78.3346632123 34.2342264056 9.7966579397 4.6135817272 1
80.2365671992 34.2342264056 10.0769462647 3.9106597964 1
82.1384711862 34.2342264056 10.8389488555 2.5001113989 1
84.0403751731 34.2342264056 10.7506962929 3.5817579318 1
85.94227916 34.2342264056 9.8939228064 -0.4924081109 1
87.844183147 34.2342264056 9.7369726807 -3.1772056154 1
89.7460871339 34.2342264056 8.7576167437 -2.8440904514 1
91.6479911208 34.2342264056 8.2376238027 0.1177834458 1
93.5498951077 34.2342264056 7.8038617963 -0.6781900522 1
95.4517990947 34.2342264056 0 -0 0
97.3537030816 34.2342264056 0 -0 0
99.2556070685 34.2342264056 0 -0 0
101.1575110555 34.2342264056 0 -0 0
103.0594150424 34.2342264056 9.2333983817 -2.9317573087 1
104.9613190293 34.2342264056 10.3060892917 4.5376667632 1
106.8632230163 34.2342264056 10.9079676119 2.7685155744 1
108.7651270032 34.2342264056 10.718255777 0.068980969 1
110.6670309901 34.2342264056 10.1170765244 0.6583327533 1
112.5689349771 34.2342264056 10.4992964647 2.5735701793 1
114.470838964 34.2342264056 11.118802625 3.6644746347 1
116.3727429509 34.2342264056 11.0381453375 3.8900656425 1
118.2746469378 34.2342264056 10.9934616915 4.2487251148 1
120.1765509248 34.2342264056 10.7116240815 3.6925884889 1
122.0784549117 34.2342264056 10.5986963216 3.1127402453 1
123.9803588986 34.2342264056 10.0955187907 2.4296945073 1
125.8822628856 34.2342264056 9.4929791903 -3.2572583038 1
127.7841668725 34.2342264056 10.3382464019 2.2700425797 1
129.6860708594 34.2342264056 10.9013548102 3.7079679764 1
131.5879748464 34.2342264056 11.2738633788 4.3081269681 1
133.4898788333 34.2342264056 10.5600775595 2.8852598657 1
135.3917828202 34.2342264056 9.9783021566 3.201729663 1
137.2936868072 34.2342264056 10.7538326503 0.3422408304 1
139.1955907941 34.2342264056 10.9770808369 1.6962970074 1
141.097494781 34.2342264056 10.8878269072 3.5538708022 1
142.9993987679 34.2342264056 10.2295697288 4.1280698238 1
144.9013027549 34.2342264056 10.1997365461 3.1802852916 1
146.8032067418 34.2342264056 11.3051513779 2.9803330609 1
148.7051107287 34.2342264056 10.2471597814 -5.8354196569 1
150.6070147157 34.2342264056 10.5034152955 1.8737657122 1
152.5089187026 34.2342264056 10.5417695455 1.157618178 1