TITLE = "B00082"
VARIABLES = "x", "y", "Vx", "Vy", "isValid"
ZONE T="Frame 0", I=51, J=39, F=POINT
-21.5152961016 42.7927943468 0 -0 0
-17.7114881277 42.7927943468 0 -0 0
-13.9076801538 42.7927943468 0 -0 0
-10.10387218 42.7927943468 0 -0 0
-6.3000642061 42.7927943468 0 -0 0
-2.4962562323 42.7927943468 0 -0 0
1.3075517416 42.7927943468 0 -0 0
5.1113597155 42.7927943468 0 -0 0
8.9151676893 42.7927943468 0 -0 0
12.7189756632 42.7927943468 0 -0 0
16.522783637 42.7927943468 0 -0 0
20.3265916109 42.7927943468 0 -0 0
24.1303995848 42.7927943468 0 -0 0
27.9342075586 42.7927943468 0 -0 0
31.7380155325 42.7927943468 0 -0 0
35.5418235064 42.7927943468 0 -0 0
39.3456314802 42.7927943468 0 -0 0
43.1494394541 42.7927943468 0 -0 0
46.9532474279 42.7927943468 0 -0 0
50.7570554018 42.7927943468 0 -0 0
54.5608633757 42.7927943468 0 -0 0
58.3646713495 42.7927943468 0 -0 0
62.1684793234 42.7927943468 0 -0 0
65.9722872972 42.7927943468 0 -0 0
69.7760952711 42.7927943468 0 -0 0
73.579903245 42.7927943468 0 -0 0
77.3837112188 42.7927943468 0 -0 0
81.1875191927 42.7927943468 0 -0 0
84.9913271666 42.7927943468 0 -0 0
88.7951351404 42.7927943468 0 -0 0
92.5989431143 42.7927943468 0 -0 0
96.4027510881 42.7927943468 0 -0 0
100.206559062 42.7927943468 0 -0 0
104.0103670359 42.7927943468 0 -0 0
107.8141750097 42.7927943468 0 -0 0
111.6179829836 42.7927943468 0 -0 0
115.4217909575 42.7927943468 0 -0 0
119.2255989313 42.7927943468 0 -0 0
123.0294069052 42.7927943468 0 -0 0
126.833214879 42.7927943468 0 -0 0
130.6370228529 42.7927943468 0 -0 0
134.4408308268 42.7927943468 0 -0 0
138.2446388006 42.7927943468 0 -0 0
142.0484467745 42.7927943468 0 -0 0
145.8522547483 42.7927943468 0 -0 0
149.6560627222 42.7927943468 0 -0 0
153.4598706961 42.7927943468 0 -0 0
157.2636786699 42.7927943468 0 -0 0
161.0674866438 42.7927943468 0 -0 0
164.8712946177 42.7927943468 0 -0 0
168.6751025915 42.7927943468 0 -0 0
-21.5152961016 38.9889863729 0 -0 0
-17.7114881277 38.9889863729 9.3527058539 0.229454291 1
-13.9076801538 38.9889863729 9.3032923836 0.3592803419 1
-10.10387218 38.9889863729 9.3684398979 0.4294002613 1
-6.3000642061 38.9889863729 0 -0 0
-2.4962562323 38.9889863729 0 -0 0
1.3075517416 38.9889863729 0 -0 0
5.1113597155 38.9889863729 0 -0 0
8.9151676893 38.9889863729 0 -0 0
12.7189756632 38.9889863729 0 -0 0
16.522783637 38.9889863729 0 -0 0
20.3265916109 38.9889863729 9.7017308043 0.7878824095 1
24.1303995848 38.9889863729 9.4510544994 0.826366527 1
27.9342075586 38.9889863729 9.4832182893 0.8617479383 1
31.7380155325 38.9889863729 9.6102087338 0.9339021646 1
35.5418235064 38.9889863729 9.7417522988 0.8969616357 1
39.3456314802 38.9889863729 9.9067206134 0.8943962349 1
43.1494394541 38.9889863729 10.019908829 0.9541178954 1
46.9532474279 38.9889863729 10.0645020789 0.9049870541 1
50.7570554018 38.9889863729 10.2593979988 0.8417589317 1
54.5608633757 38.9889863729 10.2610565025 0.8946384882 1
58.3646713495 38.9889863729 10.3187935491 0.9258767462 1
62.1684793234 38.9889863729 10.302481824 0.9269451455 1
65.9722872972 38.9889863729 10.3795059637 0.8580737626 1
69.7760952711 38.9889863729 10.4795317477 0.950456143 1
73.579903245 38.9889863729 10.498731878 0.7290583286 1
77.3837112188 38.9889863729 10.6689490151 0.8549896912 1
81.1875191927 38.9889863729 10.3742881994 0.5408212698 1
84.9913271666 38.9889863729 10.8453467182 0.9348432256 1
88.7951351404 38.9889863729 10.6630044908 0.7827050207 1
92.5989431143 38.9889863729 0 -0 0
96.4027510881 38.9889863729 0 -0 0
100.206559062 38.9889863729 0 -0 0
104.0103670359 38.9889863729 10.8076421595 0.3718402459 1
107.8141750097 38.9889863729 10.7835783275 0.3726974501 1
111.6179829836 38.9889863729 10.8258360067 0.2431291816 1
115.4217909575 38.9889863729 10.8581488756 0.1012805321 1
119.2255989313 38.9889863729 10.8499246852 -0.1116632619 1
123.0294069052 38.9889863729 10.8517260562 -0.2835420084 1
126.833214879 38.9889863729 10.8536330248 -0.3097705914 1
130.6370228529 38.9889863729 10.7234125358 -0.3554011826 1
134.4408308268 38.9889863729 10.696932382 -0.2094963425 1
138.2446388006 38.9889863729 10.5771598448 -0.1415163276 1
142.0484467745 38.9889863729 10.4679097989 -0.6824183485 1
145.8522547483 38.9889863729 10.3451867402 -0.754668855 1
149.6560627222 38.9889863729 10.1634656752 -0.5914615358 1
153.4598706961 38.9889863729 10.0336924231 -0.3910652227 1
157.2636786699 38.9889863729 9.9005338358 -0.2838650128 1
161.0674866438 38.9889863729 9.7130918649 -0.0616627931 1
164.8712946177 38.9889863729 9.6251911713 0.1116756851 1
168.6751025915 38.9889863729 0 -0 0
-21.5152961016 35.1851783991 0 -0 0
-17.7114881277 35.1851783991 9.3101065354 0.2574904566 1
-13.9076801538 35.1851783991 9.2580220667 0.2634225577 1
-10.10387218 35.1851783991 9.2852041341 0.3478851173 1
-6.3000642061 35.1851783991 0 -0 0
-2.4962562323 35.1851783991 0 -0 0
1.3075517416 35.1851783991 0 -0 0
5.1113597155 35.1851783991 0 -0 0
8.9151676893 35.1851783991 0 -0 0
12.7189756632 35.1851783991 0 -0 0
16.522783637 35.1851783991 0 -0 0
20.3265916109 35.1851783991 9.3942740428 0.8382524698 1
24.1303995848 35.1851783991 9.4457249258 0.9170500282 1
27.9342075586 35.1851783991 9.4719379798 0.9521488106 1
31.7380155325 35.1851783991 9.5632861248 0.9657677966 1
35.5418235064 35.1851783991 9.7553557557 1.0120133385 1
39.3456314802 35.1851783991 9.8493997456 0.9635378235 1
43.1494394541 35.1851783991 9.9509163194 0.9842566959 1
46.9532474279 35.1851783991 10.0190143551 0.9658485477 1
50.7570554018 35.1851783991 10.2932886203 0.8815909717 1
54.5608633757 35.1851783991 10.3059416987 0.9361414551 1
58.3646713495 35.1851783991 10.3250859244 0.9850424664 1
62.1684793234 35.1851783991 10.3087679877 0.9772561955 1
65.9722872972 35.1851783991 10.4029672682 0.9764486843 1
69.7760952711 35.1851783991 10.5858933883 0.8972877459 1
73.579903245 35.1851783991 10.5845019845 0.9472882147 1
77.3837112188 35.1851783991 10.646257952 0.8958031678 1
81.1875191927 35.1851783991 10.7095233441 0.923830016 1
84.9913271666 35.1851783991 10.8007969497 0.903583227 1
88.7951351404 35.1851783991 10.6900250559 0.7806769254 1
92.5989431143 35.1851783991 0 -0 0
96.4027510881 35.1851783991 0 -0 0
100.206559062 35.1851783991 0 -0 0
104.0103670359 35.1851783991 10.9202775405 0.4006746053 1
107.8141750097 35.1851783991 10.9454097719 0.3219267399 1
111.6179829836 35.1851783991 11.0081409644 0.11936257 1
115.4217909575 35.1851783991 10.9976184731 0.0379406004 1
119.2255989313 35.1851783991 10.9769523995 -0.1671734412 1
123.0294069052 35.1851783991 10.9406454562 -0.4035536931 1
126.833214879 35.1851783991 10.9145442114 -0.4560667638 1
130.6370228529 35.1851783991 10.8370293534 -0.4842675376 1
134.4408308268 35.1851783991 10.8392034219 -0.3513046164 1
138.2446388006 35.1851783991 10.0691918552 -0.8377897038 1
142.0484467745 35.1851783991 9.8504743566 -0.8364076175 1
145.8522547483 35.1851783991 10.3601567544 -0.7918826954 1
149.6560627222 35.1851783991 10.1258170211 -0.6579600784 1
153.4598706961 35.1851783991 9.9526866323 -0.4343602432 1
157.2636786699 35.1851783991 9.7775498889 -0.318041369 1
161.0674866438 35.1851783991 9.5704543391 -0.0820866134 1
164.8712946177 35.1851783991 9.4163750016 0.2079061667 1
168.6751025915 35.1851783991 0 -0 0
-21.5152961016 31.3813704252 0 -0 0
-17.7114881277 31.3813704252 9.2264421694 0.1251238514 1
-13.9076801538 31.3813704252 9.1838180044 0.2334110955 1
-10.10387218 31.3813704252 9.2131865635 0.3333716575 1
-6.3000642061 31.3813704252 9.2337284046 0.3420679313 1
-2.4962562323 31.3813704252 0 -0 0
1.3075517416 31.3813704252 0 -0 0
5.1113597155 31.3813704252 0 -0 0
8.9151676893 31.3813704252 0 -0 0
12.7189756632 31.3813704252 0 -0 0
16.522783637 31.3813704252 0 -0 0
20.3265916109 31.3813704252 9.3304309696 0.8807803547 1
24.1303995848 31.3813704252 9.3650607744 0.9287340933 1
27.9342075586 31.3813704252 9.4407121451 0.9792687617 1
31.7380155325 31.3813704252 9.6124635534 1.0148116752 1
35.5418235064 31.3813704252 9.8301934037 1.1099799691 1
39.3456314802 31.3813704252 9.8378212782 1.0539977062 1
43.1494394541 31.3813704252 9.9362444631 1.0850123457 1
46.9532474279 31.3813704252 9.9487546742 1.0838849359 1
50.7570554018 31.3813704252 10.2693303859 0.9898160995 1
54.5608633757 31.3813704252 10.3533798725 1.000419342 1
58.3646713495 31.3813704252 10.3218558798 1.0540318702 1
62.1684793234 31.3813704252 10.3177624195 1.0961746343 1
65.9722872972 31.3813704252 10.3723688076 1.0653587669 1
69.7760952711 31.3813704252 10.553586731 0.9402380212 1
73.579903245 31.3813704252 10.6238402004 0.9719825265 1
77.3837112188 31.3813704252 10.6609235967 1.0167465961 1
81.1875191927 31.3813704252 10.6986902716 0.9487230999 1
84.9913271666 31.3813704252 10.6874161737 0.8405197127 1
88.7951351404 31.3813704252 10.9616345343 0.8466443741 1
92.5989431143 31.3813704252 10.8288237979 0.717020201 1
96.4027510881 31.3813704252 0 -0 0
100.206559062 31.3813704252 0 -0 0
104.0103670359 31.3813704252 10.9954195581 0.3883911185 1
107.8141750097 31.3813704252 11.0505166645 0.3074194917 1
111.6179829836 31.3813704252 11.1617854882 0.0977989167 1
115.4217909575 31.3813704252 11.148268994 -0.0167775969 1
119.2255989313 31.3813704252 11.1483124754 -0.2656245785 1
123.0294069052 31.3813704252 11.1769418512 -0.4773167301 1
126.833214879 31.3813704252 11.1031291212 -0.5512381635 1
130.6370228529 31.3813704252 11.0214400517 -0.6747656275 1
134.4408308268 31.3813704252 10.9377881091 -0.7248592707 1
138.2446388006 31.3813704252 10.2937420688 -1.0918606614 1
142.0484467745 31.3813704252 10.0311580804 -1.0529479418 1
145.8522547483 31.3813704252 9.7089673464 -0.8996357399 1
149.6560627222 31.3813704252 10.1078219459 -0.8140085007 1
153.4598706961 31.3813704252 9.8184347991 -0.6166589893 1
157.2636786699 31.3813704252 9.5219850357 -0.3929504507 1
161.0674866438 31.3813704252 9.3005468458 -0.0755457731 1
164.8712946177 31.3813704252 9.1458836156 0.2194628935 1
168.6751025915 31.3813704252 0 -0 0
-21.5152961016 27.5775624514 0 -0 0
-17.7114881277 27.5775624514 9.1631395075 -0.0346266989 1
-13.9076801538 27.5775624514 9.1135148421 0.2254943805 1
-10.10387218 27.5775624514 9.1192543828 0.3131279743 1
-6.3000642061 27.5775624514 9.2084284594 0.33299896 1
-2.4962562323 27.5775624514 0 -0 0
1.3075517416 27.5775624514 0 -0 0
5.1113597155 27.5775624514 0 -0 0
8.9151676893 27.5775624514 0 -0 0
12.7189756632 27.5775624514 0 -0 0
16.522783637 27.5775624514 0 -0 0
20.3265916109 27.5775624514 9.1735004967 0.979247021 1
24.1303995848 27.5775624514 9.2851792876 0.9538849595 1
27.9342075586 27.5775624514 9.5588075438 1.044003203 1
31.7380155325 27.5775624514 9.7162163118 1.1072996532 1
35.5418235064 27.5775624514 9.7614369358 1.1489548049 1
39.3456314802 27.5775624514 9.9009127448 1.1374912525 1
43.1494394541 27.5775624514 10.0540417038 1.1633440323 1
46.9532474279 27.5775624514 10.0408854838 1.1245120638 1
50.7570554018 27.5775624514 10.2103261679 1.0588148208 1
54.5608633757 27.5775624514 10.2924314161 1.0565165198 1
58.3646713495 27.5775624514 10.3430685764 1.0911307955 1
62.1684793234 27.5775624514 10.3390869253 1.134953804 1
65.9722872972 27.5775624514 10.4404916898 1.02689639 1
69.7760952711 27.5775624514 10.743886049 1.114427492 1
73.579903245 27.5775624514 10.7806588641 1.0957895137 1
77.3837112188 27.5775624514 10.8187796016 1.0761794162 1
81.1875191927 27.5775624514 10.7442463232 1.025756557 1
84.9913271666 27.5775624514 10.8743922728 1.0094168796 1
88.7951351404 27.5775624514 11.1193414603 0.9703457636 1
92.5989431143 27.5775624514 10.9090717705 0.7878761978 1
96.4027510881 27.5775624514 0 -0 0
100.206559062 27.5775624514 0 -0 0
104.0103670359 27.5775624514 11.0920165255 0.4220239576 1
107.8141750097 27.5775624514 11.2505371743 0.2826475345 1
111.6179829836 27.5775624514 11.360253092 0.0443541024 1
115.4217909575 27.5775624514 11.4456753475 -0.1866530946 1
119.2255989313 27.5775624514 11.4050451139 -0.4006870286 1
123.0294069052 27.5775624514 11.4674222437 -0.5714010956 1
126.833214879 27.5775624514 11.4604652247 -0.6239203779 1
130.6370228529 27.5775624514 10.7780375587 -0.8520702278 1
134.4408308268 27.5775624514 10.6957149036 -0.9243362634 1
138.2446388006 27.5775624514 10.4040356676 -1.3702283868 1
142.0484467745 27.5775624514 10.2486332541 -1.3210540641 1
145.8522547483 27.5775624514 9.8140183344 -1.0929476956 1
149.6560627222 27.5775624514 9.3007953107 -0.9331660871 1
153.4598706961 27.5775624514 9.5855547975 -0.7525009982 1
157.2636786699 27.5775624514 9.3320211454 -0.5524059489 1
161.0674866438 27.5775624514 9.0602004718 -0.1248629632 1
164.8712946177 27.5775624514 8.8843307568 -0.1952096069 1
168.6751025915 27.5775624514 0 -0 0
-21.5152961016 23.7737544775 0 -0 0
-17.7114881277 23.7737544775 9.1558719073 0.1569180497 1
-13.9076801538 23.7737544775 9.10918534 0.1928926711 1
-10.10387218 23.7737544775 9.0438701119 0.2326781239 1
-6.3000642061 23.7737544775 9.0374907739 0.3393969329 1
-2.4962562323 23.7737544775 0 -0 0
1.3075517416 23.7737544775 0 -0 0
5.1113597155 23.7737544775 0 -0 0
8.9151676893 23.7737544775 0 -0 0
12.7189756632 23.7737544775 0 -0 0
16.522783637 23.7737544775 9.1881412948 1.032151424 1
20.3265916109 23.7737544775 9.0865998745 1.0363132122 1
24.1303995848 23.7737544775 9.3020003658 1.0464723236 1
27.9342075586 23.7737544775 9.4840382237 1.1390441585 1
31.7380155325 23.7737544775 9.6262657823 1.2057445789 1
35.5418235064 23.7737544775 9.6800087546 1.2102790645 1
39.3456314802 23.7737544775 9.8943097884 1.2082758157 1
43.1494394541 23.7737544775 10.125189647 1.1997845255 1
46.9532474279 23.7737544775 10.1166672987 1.2378959456 1
50.7570554018 23.7737544775 10.1846845833 1.1390565818 1
54.5608633757 23.7737544775 10.2308245276 1.1076195519 1
58.3646713495 23.7737544775 10.2995499374 1.1516195917 1
62.1684793234 23.7737544775 10.437298915 1.1725310244 1
65.9722872972 23.7737544775 10.5840733825 1.2600993961 1
69.7760952711 23.7737544775 10.7227603153 1.2381723628 1
73.579903245 23.7737544775 10.6980069929 1.0474786067 1
77.3837112188 23.7737544775 10.8115741176 1.0210264052 1
81.1875191927 23.7737544775 10.8414458182 1.0614423378 1
84.9913271666 23.7737544775 11.0008298828 1.0349932421 1
88.7951351404 23.7737544775 11.1344605535 0.8761402714 1
92.5989431143 23.7737544775 11.2709547829 0.8385692627 1
96.4027510881 23.7737544775 0 -0 0
100.206559062 23.7737544775 0 -0 0
104.0103670359 23.7737544775 0 -0 0
107.8141750097 23.7737544775 11.5207738837 0.2970274445 1
111.6179829836 23.7737544775 11.5872631088 0.0199517368 1
115.4217909575 23.7737544775 11.6904568211 -0.2450299386 1
119.2255989313 23.7737544775 11.676443397 -0.4404103651 1
123.0294069052 23.7737544775 11.663684721 -0.6963292808 1
126.833214879 23.7737544775 11.285564523 -0.8545890414 1
130.6370228529 23.7737544775 11.07455565 -1.0940626821 1
134.4408308268 23.7737544775 10.9085748406 -1.1949891516 1
138.2446388006 23.7737544775 10.5568167756 -1.4203468764 1
142.0484467745 23.7737544775 10.3320802132 -1.6632058523 1
145.8522547483 23.7737544775 9.6781266324 -1.4135513596 1
149.6560627222 23.7737544775 9.2445925353 -1.1625303095 1
153.4598706961 23.7737544775 8.9195133961 -1.1714098263 1
157.2636786699 23.7737544775 8.6629174133 -0.9110837632 1
161.0674866438 23.7737544775 8.8346377634 -0.5093438643 1
164.8712946177 23.7737544775 8.5919930886 -0.1395192904 1
168.6751025915 23.7737544775 0 -0 0
-21.5152961016 19.9699465036 0 -0 0
-17.7114881277 19.9699465036 9.0701452821 0.2054339403 1
-13.9076801538 19.9699465036 9.0906312186 0.1831714793 1
-10.10387218 19.9699465036 9.0036809035 0.2667178243 1
-6.3000642061 19.9699465036 8.9630196117 0.3801917746 1
-2.4962562323 19.9699465036 0 -0 0
1.3075517416 19.9699465036 0 -0 0
5.1113597155 19.9699465036 0 -0 0
8.9151676893 19.9699465036 0 -0 0
12.7189756632 19.9699465036 0 -0 0
16.522783637 19.9699465036 9.084394748 1.0478016111 1
20.3265916109 19.9699465036 9.1077877246 1.1327828414 1
24.1303995848 19.9699465036 9.2803528556 1.1756678946 1
27.9342075586 19.9699465036 9.3147528302 1.2065148203 1
31.7380155325 19.9699465036 9.5101394684 1.3150877991 1
35.5418235064 19.9699465036 9.6212778481 1.3887421327 1
39.3456314802 19.9699465036 9.682530674 1.3132149944 1
43.1494394541 19.9699465036 9.9554632283 1.2964684556 1
46.9532474279 19.9699465036 10.1528562211 1.290182292 1
50.7570554018 19.9699465036 10.2249731777 1.236069728 1
54.5608633757 19.9699465036 10.2330420775 1.2652829965 1
58.3646713495 19.9699465036 10.352578573 1.2531548003 1
62.1684793234 19.9699465036 10.4790286061 1.1600114959 1
65.9722872972 19.9699465036 10.6141749132 1.3533327691 1
69.7760952711 19.9699465036 10.6985101345 1.2598850951 1
73.579903245 19.9699465036 10.7258288576 1.19412263 1
77.3837112188 19.9699465036 10.8512291263 1.0933825093 1
81.1875191927 19.9699465036 10.9230417133 1.0875560058 1
84.9913271666 19.9699465036 11.067002315 0.986964964 1
88.7951351404 19.9699465036 11.3089264415 0.8722362657 1
92.5989431143 19.9699465036 11.4138594085 0.8407371195 1
96.4027510881 19.9699465036 0 -0 0
100.206559062 19.9699465036 0 -0 0
104.0103670359 19.9699465036 0 -0 0
107.8141750097 19.9699465036 11.5996677223 0.3576280498 1
111.6179829836 19.9699465036 11.7600642815 0.1258040243 1
115.4217909575 19.9699465036 11.8818121152 -0.1766710146 1
119.2255989313 19.9699465036 11.9450650841 -0.5274600662 1
123.0294069052 19.9699465036 11.9609482071 -0.7857828805 1
126.833214879 19.9699465036 11.7700712081 -1.1366371542 1
130.6370228529 19.9699465036 11.5561180252 -1.3733093524 1
134.4408308268 19.9699465036 11.3028949544 -1.6914998004 1
138.2446388006 19.9699465036 10.7664093983 -2.0313191238 1
142.0484467745 19.9699465036 10.3476279085 -2.1477435955 1
145.8522547483 19.9699465036 9.5118041837 -1.924199665 1
149.6560627222 19.9699465036 9.0931407148 -1.5350414109 1
153.4598706961 19.9699465036 8.6873787893 -1.445625081 1
157.2636786699 19.9699465036 8.2003750313 -0.9973632229 1
161.0674866438 19.9699465036 8.5197084181 -0.531314379 1
164.8712946177 19.9699465036 8.1680621623 -0.1045323173 1
168.6751025915 19.9699465036 0 -0 0
-21.5152961016 16.1661385298 0 -0 0
-17.7114881277 16.1661385298 8.9303278337 0.2164533616 1
-13.9076801538 16.1661385298 9.0150171176 0.150979737 1
-10.10387218 16.1661385298 8.9525219669 0.2333645084 1
-6.3000642061 16.1661385298 8.9260107549 0.4740897914 1
-2.4962562323 16.1661385298 0 -0 0
1.3075517416 16.1661385298 0 -0 0
5.1113597155 16.1661385298 0 -0 0
8.9151676893 16.1661385298 0 -0 0
12.7189756632 16.1661385298 0 -0 0
16.522783637 16.1661385298 8.8336376919 1.220385377 1
20.3265916109 16.1661385298 9.1226335063 1.1928244006 1
24.1303995848 16.1661385298 9.2518477123 1.3245201504 1
27.9342075586 16.1661385298 9.3689492511 1.2723207667 1
31.7380155325 16.1661385298 9.5553725156 1.3707315284 1
35.5418235064 16.1661385298 9.6728902333 1.5692053438 1
39.3456314802 16.1661385298 9.6962459401 1.4570389404 1
43.1494394541 16.1661385298 9.8851290078 1.3706569889 1
46.9532474279 16.1661385298 10.1874922375 1.2393805237 1
50.7570554018 16.1661385298 10.3714308523 1.2681589785 1
54.5608633757 16.1661385298 10.387699096 1.3725701691 1
58.3646713495 16.1661385298 10.4127257298 1.3356265344 1
62.1684793234 16.1661385298 10.5227894984 1.2167360478 1
65.9722872972 16.1661385298 10.5890799515 1.3979011725 1
69.7760952711 16.1661385298 10.7194433079 1.2306594034 1
73.579903245 16.1661385298 10.8955863345 1.3291788685 1
77.3837112188 16.1661385298 10.9555968356 1.2672738221 1
81.1875191927 16.1661385298 10.9998608694 1.1569740117 1
84.9913271666 16.1661385298 0 -0 0
88.7951351404 16.1661385298 0 -0 0
92.5989431143 16.1661385298 0 -0 0
96.4027510881 16.1661385298 0 -0 0
100.206559062 16.1661385298 0 -0 0
104.0103670359 16.1661385298 0 -0 0
107.8141750097 16.1661385298 0 -0 0
111.6179829836 16.1661385298 0 -0 0
115.4217909575 16.1661385298 12.0972995692 -0.0272938766 1
119.2255989313 16.1661385298 12.2341540729 -0.1614960167 1
123.0294069052 16.1661385298 12.3796551574 -0.6343186368 1
126.833214879 16.1661385298 12.1105613868 -1.3613675049 1
130.6370228529 16.1661385298 12.1222019705 -1.8195524326 1
134.4408308268 16.1661385298 11.9494815489 -2.192591522 1
138.2446388006 16.1661385298 10.5187581543 -2.7594705552 1
142.0484467745 16.1661385298 9.8817498843 -2.7826833947 1
145.8522547483 16.1661385298 9.4494394771 -2.4081038225 1
149.6560627222 16.1661385298 8.8732678541 -2.2458499877 1
153.4598706961 16.1661385298 8.3860963823 -1.9063971501 1
157.2636786699 16.1661385298 7.8208758527 -1.2252552904 1
161.0674866438 16.1661385298 7.8587543369 -0.5899986983 1
164.8712946177 16.1661385298 7.609053257 -0.1438829564 1
168.6751025915 16.1661385298 0 -0 0
-21.5152961016 12.3623305559 0 -0 0
-17.7114881277 12.3623305559 8.8704664116 0.0938731702 1
-13.9076801538 12.3623305559 8.9345827963 0.1893489395 1
-10.10387218 12.3623305559 8.8608818755 0.3448973261 1
-6.3000642061 12.3623305559 8.8528813036 0.432561978 1
-2.4962562323 12.3623305559 8.7428858628 0.4651419468 1
1.3075517416 12.3623305559 0 -0 0
5.1113597155 12.3623305559 0 -0 0
8.9151676893 12.3623305559 0 -0 0
12.7189756632 12.3623305559 0 -0 0
16.522783637 12.3623305559 8.8171893111 1.3553515469 1
20.3265916109 12.3623305559 9.0489636437 1.2799331121 1
24.1303995848 12.3623305559 9.2288212215 1.4681857 1
27.9342075586 12.3623305559 9.3170387079 1.5049802557 1
31.7380155325 12.3623305559 9.4882497049 1.5892285143 1
35.5418235064 12.3623305559 9.7018923065 1.6613144128 1
39.3456314802 12.3623305559 9.7876065084 1.6147179141 1
43.1494394541 12.3623305559 10.0269155411 1.5784886161 1
46.9532474279 12.3623305559 10.1809576088 1.5620930341 1
50.7570554018 12.3623305559 10.2712373545 1.4795032792 1
54.5608633757 12.3623305559 0 -0 0
58.3646713495 12.3623305559 0 -0 0
62.1684793234 12.3623305559 0 -0 0
65.9722872972 12.3623305559 0 -0 0
69.7760952711 12.3623305559 0 -0 0
73.579903245 12.3623305559 0 -0 0
77.3837112188 12.3623305559 0 -0 0
81.1875191927 12.3623305559 0 -0 0
84.9913271666 12.3623305559 0 -0 0
88.7951351404 12.3623305559 0 -0 0
92.5989431143 12.3623305559 0 -0 0
96.4027510881 12.3623305559 0 -0 0
100.206559062 12.3623305559 0 -0 0
104.0103670359 12.3623305559 0 -0 0
107.8141750097 12.3623305559 0 -0 0
111.6179829836 12.3623305559 0 -0 0
115.4217909575 12.3623305559 12.1918156426 0.5637545862 1
119.2255989313 12.3623305559 12.6038326736 -0.1805967611 1
123.0294069052 12.3623305559 12.6808257552 -0.7329033239 1
126.833214879 12.3623305559 12.2651314426 -0.8871907508 1
130.6370228529 12.3623305559 12.42165816 -1.3414312972 1
134.4408308268 12.3623305559 12.3687786035 -2.280635083 1
138.2446388006 12.3623305559 10.6966031659 -3.8440698279 1
142.0484467745 12.3623305559 9.9685883902 -3.8275841774 1
145.8522547483 12.3623305559 8.9562737879 -3.4804972538 1
149.6560627222 12.3623305559 8.1679565647 -2.717014104 1
153.4598706961 12.3623305559 7.9193052493 -2.1880943061 1
157.2636786699 12.3623305559 7.4030447414 -1.5507816665 1
161.0674866438 12.3623305559 6.9802194843 -1.0523733665 1
164.8712946177 12.3623305559 7.1785877021 -0.5684443625 1
168.6751025915 12.3623305559 0 -0 0
-21.5152961016 8.5585225821 0 -0 0
-17.7114881277 8.5585225821 8.8544901143 0.0092460026 1
-13.9076801538 8.5585225821 8.8300349499 0.1240243939 1
-10.10387218 8.5585225821 8.7453705125 0.2417470952 1
-6.3000642061 8.5585225821 8.7058583712 0.3273432762 1
-2.4962562323 8.5585225821 8.6434377599 0.453898907 1
1.3075517416 8.5585225821 0 -0 0
5.1113597155 8.5585225821 0 -0 0
8.9151676893 8.5585225821 0 -0 0
12.7189756632 8.5585225821 0 -0 0
16.522783637 8.5585225821 8.6612278515 1.4739438756 1
20.3265916109 8.5585225821 8.9861268536 1.5834268573 1
24.1303995848 8.5585225821 9.1784263146 1.7062244555 1
27.9342075586 8.5585225821 9.2739051897 1.7608681133 1
31.7380155325 8.5585225821 9.4747829037 1.7755586045 1
35.5418235064 8.5585225821 0 -0 0
39.3456314802 8.5585225821 0 -0 0
43.1494394541 8.5585225821 0 -0 0
46.9532474279 8.5585225821 0 -0 0
50.7570554018 8.5585225821 0 -0 0
54.5608633757 8.5585225821 0 -0 0
58.3646713495 8.5585225821 0 -0 0
62.1684793234 8.5585225821 0 -0 0
65.9722872972 8.5585225821 0 -0 0
69.7760952711 8.5585225821 0 -0 0
73.579903245 8.5585225821 0 -0 0
77.3837112188 8.5585225821 0 -0 0
81.1875191927 8.5585225821 0 -0 0
84.9913271666 8.5585225821 0 -0 0
88.7951351404 8.5585225821 0 -0 0
92.5989431143 8.5585225821 0 -0 0
96.4027510881 8.5585225821 0 -0 0
100.206559062 8.5585225821 0 -0 0
104.0103670359 8.5585225821 0 -0 0
107.8141750097 8.5585225821 0 -0 0
111.6179829836 8.5585225821 -0.7537899102 0.7026558201 1
115.4217909575 8.5585225821 12.0886592 0.6246968309 1
119.2255989313 8.5585225821 13.0470196348 -0.3304987813 1
123.0294069052 8.5585225821 12.2729891472 -0.7500815706 1
126.833214879 8.5585225821 12.158142428 -0.8281616864 1
130.6370228529 8.5585225821 12.0999954141 -1.0145694218 1
134.4408308268 8.5585225821 8.7018021806 -1.4880597915 1
138.2446388006 8.5585225821 10.7537501082 -4.8574776761 1
142.0484467745 8.5585225821 9.3648123094 -4.6815769029 1
145.8522547483 8.5585225821 8.1163752376 -4.2119967507 1
149.6560627222 8.5585225821 7.7107623911 -3.4681609682 1
153.4598706961 8.5585225821 7.1539834588 -2.7264744076 1
157.2636786699 8.5585225821 6.9664607368 -2.0912364505 1
161.0674866438 8.5585225821 6.3874566132 -1.3305858014 1
164.8712946177 8.5585225821 6.1783422856 -0.7388726948 1
168.6751025915 8.5585225821 0 -0 0
-21.5152961016 4.7547146082 0 -0 0
-17.7114881277 4.7547146082 8.8437750626 -0.1639558199 1
-13.9076801538 4.7547146082 8.7080386513 -0.1354662057 1
-10.10387218 4.7547146082 8.6382510537 0.0458604212 1
-6.3000642061 4.7547146082 8.5260442748 0.2497414555 1
-2.4962562323 4.7547146082 8.4195832481 0.373607453 1
1.3075517416 4.7547146082 0 -0 0
5.1113597155 4.7547146082 0 -0 0
8.9151676893 4.7547146082 0 -0 0
12.7189756632 4.7547146082 0 -0 0
16.522783637 4.7547146082 8.4807988043 1.5566143816 1
20.3265916109 4.7547146082 8.8340787173 1.8285064889 1
24.1303995848 4.7547146082 0 -0 0
27.9342075586 4.7547146082 0 -0 0
31.7380155325 4.7547146082 0 -0 0
35.5418235064 4.7547146082 0 -0 0
39.3456314802 4.7547146082 0 -0 0
43.1494394541 4.7547146082 0 -0 0
46.9532474279 4.7547146082 0 -0 0
50.7570554018 4.7547146082 0 -0 0
54.5608633757 4.7547146082 0 -0 0
58.3646713495 4.7547146082 0 -0 0
62.1684793234 4.7547146082 0 -0 0
65.9722872972 4.7547146082 0 -0 0
69.7760952711 4.7547146082 0 -0 0
73.579903245 4.7547146082 0 -0 0
77.3837112188 4.7547146082 0 -0 0
81.1875191927 4.7547146082 0 -0 0
84.9913271666 4.7547146082 0 -0 0
88.7951351404 4.7547146082 0 -0 0
92.5989431143 4.7547146082 0 -0 0
96.4027510881 4.7547146082 0 -0 0
100.206559062 4.7547146082 0 -0 0
104.0103670359 4.7547146082 0 -0 0
107.8141750097 4.7547146082 -1.631824727 1.0998208577 1
111.6179829836 4.7547146082 -1.0540411876 1.12688801 1
115.4217909575 4.7547146082 -0.1550266102 1.5286620729 1
119.2255989313 4.7547146082 4.187100561 1.1192880879 1
123.0294069052 4.7547146082 5.3329588712 0.9226249609 1
126.833214879 4.7547146082 5.3026834151 -0.4972094565 1
130.6370228529 4.7547146082 7.0829473248 -2.1472218191 1
134.4408308268 4.7547146082 7.6451055236 -2.6252000872 1
138.2446388006 4.7547146082 8.6198335881 -7.1603006806 1
142.0484467745 4.7547146082 7.8959309075 -6.4305528617 1
145.8522547483 4.7547146082 7.323883803 -5.1652885001 1
149.6560627222 4.7547146082 6.7449977003 -4.1266055532 1
153.4598706961 4.7547146082 6.282492588 -3.0257690949 1
157.2636786699 4.7547146082 6.2059778015 -2.4027804606 1
161.0674866438 4.7547146082 5.7270988479 -1.5631831742 1
164.8712946177 4.7547146082 5.2985651082 -0.6493414498 1
168.6751025915 4.7547146082 0 -0 0
-21.5152961016 0.9509066343 0 -0 0
-17.7114881277 0.9509066343 8.821686527 -0.3772909461 1
-13.9076801538 0.9509066343 8.4948432866 -0.1829571782 1
-10.10387218 0.9509066343 8.4395660431 -0.1476006135 1
-6.3000642061 0.9509066343 8.3420186972 0.0886429827 1
-2.4962562323 0.9509066343 8.1281711119 0.2312929317 1
1.3075517416 0.9509066343 0 -0 0
5.1113597155 0.9509066343 0 -0 0
8.9151676893 0.9509066343 0 -0 0
12.7189756632 0.9509066343 0 -0 0
16.522783637 0.9509066343 0 -0 0
20.3265916109 0.9509066343 0 -0 0
24.1303995848 0.9509066343 0 -0 0
27.9342075586 0.9509066343 0 -0 0
31.7380155325 0.9509066343 0 -0 0
35.5418235064 0.9509066343 0 -0 0
39.3456314802 0.9509066343 0 -0 0
43.1494394541 0.9509066343 0 -0 0
46.9532474279 0.9509066343 0 -0 0
50.7570554018 0.9509066343 0 -0 0
54.5608633757 0.9509066343 0 -0 0
58.3646713495 0.9509066343 0 -0 0
62.1684793234 0.9509066343 0 -0 0
65.9722872972 0.9509066343 0 -0 0
69.7760952711 0.9509066343 0 -0 0
73.579903245 0.9509066343 0 -0 0
77.3837112188 0.9509066343 0 -0 0
81.1875191927 0.9509066343 0 -0 0
84.9913271666 0.9509066343 0 -0 0
88.7951351404 0.9509066343 0 -0 0
92.5989431143 0.9509066343 0 -0 0
96.4027510881 0.9509066343 0 -0 0
100.206559062 0.9509066343 -3.4576788524 -0.7239710084 1
104.0103670359 0.9509066343 -3.6528201314 2.1758511949 1
107.8141750097 0.9509066343 -2.9178328076 2.5596985104 1
111.6179829836 0.9509066343 -1.9288180076 1.8866224446 1
115.4217909575 0.9509066343 -1.1092718439 1.4570917392 1
119.2255989313 0.9509066343 0.6911301514 2.7628527846 1
123.0294069052 0.9509066343 1.883805473 2.7054666947 1
126.833214879 0.9509066343 2.5906572452 1.1188812265 1
130.6370228529 0.9509066343 2.6830924245 1.1110794265 1
134.4408308268 0.9509066343 5.149026468 -3.2610840533 1
138.2446388006 0.9509066343 6.8685779632 -7.1108623638 1
142.0484467745 0.9509066343 6.0905037083 -7.2811913101 1
145.8522547483 0.9509066343 5.7697975525 -5.7626790312 1
149.6560627222 0.9509066343 5.3865154948 -4.4085822323 1
153.4598706961 0.9509066343 5.5572792548 -3.5235127511 1
157.2636786699 0.9509066343 5.2527233219 -2.6432386438 1
161.0674866438 0.9509066343 4.3544727742 -1.2202797794 1
164.8712946177 0.9509066343 4.3329867662 -0.7842455035 1
168.6751025915 0.9509066343 0 -0 0
-21.5152961016 -2.8529013395 0 -0 0
-17.7114881277 -2.8529013395 8.7242137206 -0.3748062965 1
-13.9076801538 -2.8529013395 8.4270868901 -0.1926845817 1
-10.10387218 -2.8529013395 8.3739650803 -0.2013435858 1
-6.3000642061 -2.8529013395 7.9577614145 -0.2703112489 1