TITLE = "B00017"
VARIABLES = "x", "y", "Vx", "Vy", "isValid"
ZONE T="Frame 0", I=51, J=39, F=POINT
-21.5152961016 42.7927943468 0 -0 0
-17.7114881277 42.7927943468 0 -0 0
-13.9076801538 42.7927943468 0 -0 0
-10.10387218 42.7927943468 0 -0 0
-6.3000642061 42.7927943468 0 -0 0
-2.4962562323 42.7927943468 0 -0 0
1.3075517416 42.7927943468 0 -0 0
5.1113597155 42.7927943468 0 -0 0
8.9151676893 42.7927943468 0 -0 0
12.7189756632 42.7927943468 0 -0 0
16.522783637 42.7927943468 0 -0 0
20.3265916109 42.7927943468 0 -0 0
24.1303995848 42.7927943468 0 -0 0
27.9342075586 42.7927943468 0 -0 0
31.7380155325 42.7927943468 0 -0 0
35.5418235064 42.7927943468 0 -0 0
39.3456314802 42.7927943468 0 -0 0
43.1494394541 42.7927943468 0 -0 0
46.9532474279 42.7927943468 0 -0 0
50.7570554018 42.7927943468 0 -0 0
54.5608633757 42.7927943468 0 -0 0
58.3646713495 42.7927943468 0 -0 0
62.1684793234 42.7927943468 0 -0 0
65.9722872972 42.7927943468 0 -0 0
69.7760952711 42.7927943468 0 -0 0
73.579903245 42.7927943468 0 -0 0
77.3837112188 42.7927943468 0 -0 0
81.1875191927 42.7927943468 0 -0 0
84.9913271666 42.7927943468 0 -0 0
88.7951351404 42.7927943468 0 -0 0
92.5989431143 42.7927943468 0 -0 0
96.4027510881 42.7927943468 0 -0 0
100.206559062 42.7927943468 0 -0 0
104.0103670359 42.7927943468 0 -0 0
107.8141750097 42.7927943468 0 -0 0
111.6179829836 42.7927943468 0 -0 0
115.4217909575 42.7927943468 0 -0 0
119.2255989313 42.7927943468 0 -0 0
123.0294069052 42.7927943468 0 -0 0
126.833214879 42.7927943468 0 -0 0
130.6370228529 42.7927943468 0 -0 0
134.4408308268 42.7927943468 0 -0 0
138.2446388006 42.7927943468 0 -0 0
142.0484467745 42.7927943468 0 -0 0
145.8522547483 42.7927943468 0 -0 0
149.6560627222 42.7927943468 0 -0 0
153.4598706961 42.7927943468 0 -0 0
157.2636786699 42.7927943468 0 -0 0
161.0674866438 42.7927943468 0 -0 0
164.8712946177 42.7927943468 0 -0 0
168.6751025915 42.7927943468 0 -0 0
-21.5152961016 38.9889863729 0 -0 0
-17.7114881277 38.9889863729 9.3435126501 0.1326119644 1
-13.9076801538 38.9889863729 9.4236922949 0.3699239599 1
-10.10387218 38.9889863729 9.3855715574 0.432810443 1
-6.3000642061 38.9889863729 0 -0 0
-2.4962562323 38.9889863729 0 -0 0
1.3075517416 38.9889863729 0 -0 0
5.1113597155 38.9889863729 0 -0 0
8.9151676893 38.9889863729 0 -0 0
12.7189756632 38.9889863729 0 -0 0
16.522783637 38.9889863729 0 -0 0
20.3265916109 38.9889863729 9.6038853004 0.8018306115 1
24.1303995848 38.9889863729 9.4700931274 0.8238290785 1
27.9342075586 38.9889863729 9.6467952001 0.9267122096 1
31.7380155325 38.9889863729 9.7792021809 0.9986738756 1
35.5418235064 38.9889863729 9.8119374403 1.0437733729 1
39.3456314802 38.9889863729 9.9295110625 1.0339838532 1
43.1494394541 38.9889863729 9.9946647884 0.9340295029 1
46.9532474279 38.9889863729 9.9520282001 0.9021980348 1
50.7570554018 38.9889863729 10.1511977174 0.8797709658 1
54.5608633757 38.9889863729 10.2210536428 0.8706988887 1
58.3646713495 38.9889863729 10.2589010689 0.9779767439 1
62.1684793234 38.9889863729 10.4045015394 0.8950670903 1
65.9722872972 38.9889863729 10.4102410801 0.7601444017 1
69.7760952711 38.9889863729 10.3513176133 0.6955745685 1
73.579903245 38.9889863729 10.4702577928 0.5407777884 1
77.3837112188 38.9889863729 10.6715206275 0.8717486532 1
81.1875191927 38.9889863729 10.5531457057 0.5286899678 1
84.9913271666 38.9889863729 10.6079260193 0.4518552827 1
88.7951351404 38.9889863729 10.6668805442 0.7672908753 1
92.5989431143 38.9889863729 0 -0 0
96.4027510881 38.9889863729 0 -0 0
100.206559062 38.9889863729 0 -0 0
104.0103670359 38.9889863729 10.7831745719 0.4359100434 1
107.8141750097 38.9889863729 10.7931318054 0.4491345913 1
111.6179829836 38.9889863729 10.7577379709 0.3982427545 1
115.4217909575 38.9889863729 10.8502601129 0.3644887887 1
119.2255989313 38.9889863729 10.8337496159 0.2091143276 1
123.0294069052 38.9889863729 10.8125058612 0.1493491857 1
126.833214879 38.9889863729 10.7806837106 0.1423114155 1
130.6370228529 38.9889863729 10.7258537041 0.267565711 1
134.4408308268 38.9889863729 10.8262583971 0.1169245075 1
138.2446388006 38.9889863729 10.9315019454 -0.0507085939 1
142.0484467745 38.9889863729 10.8915922601 -0.1045074708 1
145.8522547483 38.9889863729 10.8262832436 -0.1422958864 1
149.6560627222 38.9889863729 10.8875236463 -0.2133195972 1
153.4598706961 38.9889863729 10.8942073539 -0.3652807708 1
157.2636786699 38.9889863729 10.8714044816 -0.3311820599 1
161.0674866438 38.9889863729 10.9034999437 -0.3300888141 1
164.8712946177 38.9889863729 10.9182463394 -0.3327908706 1
168.6751025915 38.9889863729 0 -0 0
-21.5152961016 35.1851783991 0 -0 0
-17.7114881277 35.1851783991 9.3233497181 0.2224072033 1
-13.9076801538 35.1851783991 9.3531220327 0.3345984532 1
-10.10387218 35.1851783991 9.3698002436 0.3420524022 1
-6.3000642061 35.1851783991 0 -0 0
-2.4962562323 35.1851783991 0 -0 0
1.3075517416 35.1851783991 0 -0 0
5.1113597155 35.1851783991 0 -0 0
8.9151676893 35.1851783991 0 -0 0
12.7189756632 35.1851783991 0 -0 0
16.522783637 35.1851783991 0 -0 0
20.3265916109 35.1851783991 9.3280084362 0.896442965 1
24.1303995848 35.1851783991 9.4436191852 0.9046671554 1
27.9342075586 35.1851783991 9.504163886 0.9436513087 1
31.7380155325 35.1851783991 9.7388390471 1.0126189719 1
35.5418235064 35.1851783991 9.8902411745 1.0533361683 1
39.3456314802 35.1851783991 9.8963906824 1.0470406872 1
43.1494394541 35.1851783991 10.0233314339 1.0274368013 1
46.9532474279 35.1851783991 10.1227422671 0.9524749208 1
50.7570554018 35.1851783991 10.1866847263 0.963149597 1
54.5608633757 35.1851783991 10.224289899 0.9974346566 1
58.3646713495 35.1851783991 10.3031651027 1.0311047654 1
62.1684793234 35.1851783991 10.42389423 0.9326287816 1
65.9722872972 35.1851783991 10.3857797041 0.9538849595 1
69.7760952711 35.1851783991 10.5202303093 0.9496051505 1
73.579903245 35.1851783991 10.6619050333 1.0376362882 1
77.3837112188 35.1851783991 10.7006282983 0.9879526123 1
81.1875191927 35.1851783991 10.8285939678 0.8680713717 1
84.9913271666 35.1851783991 10.8390170732 0.7835342725 1
88.7951351404 35.1851783991 10.6738437749 0.7333505609 1
92.5989431143 35.1851783991 0 -0 0
96.4027510881 35.1851783991 0 -0 0
100.206559062 35.1851783991 0 -0 0
104.0103670359 35.1851783991 10.8660686964 0.5029831612 1
107.8141750097 35.1851783991 10.870801954 0.4762048494 1
111.6179829836 35.1851783991 10.8769825201 0.3937237979 1
115.4217909575 35.1851783991 10.8920891901 0.2852067237 1
119.2255989313 35.1851783991 10.9060591328 0.1695959747 1
123.0294069052 35.1851783991 10.8870391396 0.1842523019 1
126.833214879 35.1851783991 10.8426198152 0.0397761354 1
130.6370228529 35.1851783991 10.7778946914 0.033930997 1
134.4408308268 35.1851783991 10.9204141963 -0.125362999 1
138.2446388006 35.1851783991 10.9555409309 -0.1429077314 1
142.0484467745 35.1851783991 10.9970097339 -0.1749224424 1
145.8522547483 35.1851783991 10.9607897534 -0.2751128344 1
149.6560627222 35.1851783991 10.9872450607 -0.3319491955 1
153.4598706961 35.1851783991 10.9232715434 -0.346369481 1
157.2636786699 35.1851783991 10.8501545153 -0.4215984613 1
161.0674866438 35.1851783991 10.9443227377 -0.5232610083 1
164.8712946177 35.1851783991 11.002016303 -0.5459427539 1
168.6751025915 35.1851783991 0 -0 0
-21.5152961016 31.3813704252 0 -0 0
-17.7114881277 31.3813704252 9.2774396039 0.267764483 1
-13.9076801538 31.3813704252 9.2422693878 0.3287005161 1
-10.10387218 31.3813704252 9.3025407771 0.3481460056 1
-6.3000642061 31.3813704252 9.2939749474 0.3955096398 1
-2.4962562323 31.3813704252 0 -0 0
1.3075517416 31.3813704252 0 -0 0
5.1113597155 31.3813704252 0 -0 0
8.9151676893 31.3813704252 0 -0 0
12.7189756632 31.3813704252 0 -0 0
16.522783637 31.3813704252 0 -0 0
20.3265916109 31.3813704252 9.3862486244 0.9016979991 1
24.1303995848 31.3813704252 9.432351299 0.9305851573 1
27.9342075586 31.3813704252 9.4396934387 1.0206288612 1
31.7380155325 31.3813704252 9.586933778 1.1149119987 1
35.5418235064 31.3813704252 9.8023653274 1.0783162149 1
39.3456314802 31.3813704252 9.8760724598 1.1018458472 1
43.1494394541 31.3813704252 10.0278162266 1.0749339855 1
46.9532474279 31.3813704252 10.15935358 0.989527259 1
50.7570554018 31.3813704252 10.2107982513 1.0379344462 1
54.5608633757 31.3813704252 10.2892137948 1.1162599211 1
58.3646713495 31.3813704252 10.2709454081 1.0887703783 1
62.1684793234 31.3813704252 10.3652502863 0.9920616017 1
65.9722872972 31.3813704252 10.4822524391 0.9495399284 1
69.7760952711 31.3813704252 10.593303856 1.0083671151 1
73.579903245 31.3813704252 10.6768564126 1.0661290082 1
77.3837112188 31.3813704252 10.686006135 1.0024443315 1
81.1875191927 31.3813704252 10.6969448052 0.8803269061 1
84.9913271666 31.3813704252 10.9079164084 0.8439795873 1
88.7951351404 31.3813704252 10.953441402 0.7998242569 1
92.5989431143 31.3813704252 10.7864605211 0.6926551052 1
96.4027510881 31.3813704252 0 -0 0
100.206559062 31.3813704252 0 -0 0
104.0103670359 31.3813704252 10.9666907963 0.5113688538 1
107.8141750097 31.3813704252 10.9659143433 0.4529609518 1
111.6179829836 31.3813704252 10.9393410151 0.3309957112 1
115.4217909575 31.3813704252 10.9616966505 0.1931349244 1
119.2255989313 31.3813704252 10.998214789 0.1282917798 1
123.0294069052 31.3813704252 10.9245387147 0.202231848 1
126.833214879 31.3813704252 10.8738083801 0.0782167715 1
130.6370228529 31.3813704252 10.8854489638 0.0351360521 1
134.4408308268 31.3813704252 10.9807290669 0.046624451 1
138.2446388006 31.3813704252 11.0051593848 -0.035732368 1
142.0484467745 31.3813704252 11.086587566 -0.1827211365 1
145.8522547483 31.3813704252 11.0261608861 -0.2507974316 1
149.6560627222 31.3813704252 11.0394227037 -0.2829177402 1
153.4598706961 31.3813704252 11.0080229435 -0.335247568 1
157.2636786699 31.3813704252 10.9937299963 -0.4581787161 1
161.0674866438 31.3813704252 11.0256080516 -0.6108852846 1
164.8712946177 31.3813704252 11.0532808372 -0.6591651335 1
168.6751025915 31.3813704252 0 -0 0
-21.5152961016 27.5775624514 0 -0 0
-17.7114881277 27.5775624514 9.2527049164 0.1808172737 1
-13.9076801538 27.5775624514 9.1490080626 0.2498128892 1
-10.10387218 27.5775624514 9.1878493485 0.3293869006 1
-6.3000642061 27.5775624514 9.2494127556 0.3795892471 1
-2.4962562323 27.5775624514 0 -0 0
1.3075517416 27.5775624514 0 -0 0
5.1113597155 27.5775624514 0 -0 0
8.9151676893 27.5775624514 0 -0 0
12.7189756632 27.5775624514 0 -0 0
16.522783637 27.5775624514 0 -0 0
20.3265916109 27.5775624514 9.4015664896 0.904558452 1
24.1303995848 27.5775624514 9.4141263937 0.9903254527 1
27.9342075586 27.5775624514 9.4855600716 1.0649053183 1
31.7380155325 27.5775624514 9.6245327391 1.1479205695 1
35.5418235064 27.5775624514 9.7671081486 1.1176451133 1
39.3456314802 27.5775624514 9.8917940806 1.1552378627 1
43.1494394541 27.5775624514 9.9968140104 1.145681279 1
46.9532474279 27.5775624514 10.0935600568 1.0391022315 1
50.7570554018 27.5775624514 10.2030709909 1.1571293023 1
54.5608633757 27.5775624514 10.3101407566 1.2220625155 1
58.3646713495 27.5775624514 10.3171661036 1.1074487322 1
62.1684793234 27.5775624514 10.3772262977 0.9759641776 1
65.9722872972 27.5775624514 10.4483121246 0.9930337209 1
69.7760952711 27.5775624514 10.6409159552 1.0196132607 1
73.579903245 27.5775624514 10.7118837613 1.005609154 1
77.3837112188 27.5775624514 10.7250151348 0.9898533693 1
81.1875191927 27.5775624514 10.7297235459 0.9887570176 1
84.9913271666 27.5775624514 10.9410430001 0.9202024275 1
88.7951351404 27.5775624514 11.0787360731 0.8648817026 1
92.5989431143 27.5775624514 10.9417014323 0.6659047457 1
96.4027510881 27.5775624514 0 -0 0
100.206559062 27.5775624514 0 -0 0
104.0103670359 27.5775624514 11.0812082995 0.4305556234 1
107.8141750097 27.5775624514 11.085562648 0.3881706059 1
111.6179829836 27.5775624514 11.10427206 0.2763396302 1
115.4217909575 27.5775624514 11.1361749617 0.0989170091 1
119.2255989313 27.5775624514 11.0329377681 0.037732511 1
123.0294069052 27.5775624514 10.9394528243 0.0667811714 1
126.833214879 27.5775624514 10.8769700968 0.0406333395 1
130.6370228529 27.5775624514 10.901363145 0.0767228759 1
134.4408308268 27.5775624514 10.945490523 0.1399851622 1
138.2446388006 27.5775624514 11.0066750211 0.0256850659 1
142.0484467745 27.5775624514 11.087413712 -0.1896253568 1
145.8522547483 27.5775624514 11.0797361446 -0.3015619301 1
149.6560627222 27.5775624514 11.124981615 -0.3265885639 1
153.4598706961 27.5775624514 11.1120676484 -0.3855803586 1
157.2636786699 27.5775624514 11.1771530464 -0.4704062982 1
161.0674866438 27.5775624514 11.207223519 -0.6469437629 1
164.8712946177 27.5775624514 11.2016951735 -0.7378633058 1
168.6751025915 27.5775624514 0 -0 0
-21.5152961016 23.7737544775 0 -0 0
-17.7114881277 23.7737544775 9.1834949999 0.1110296762 1
-13.9076801538 23.7737544775 9.1256958371 0.1709252622 1
-10.10387218 23.7737544775 9.1586174452 0.221040646 1
-6.3000642061 23.7737544775 9.2227648879 0.37210424 1
-2.4962562323 23.7737544775 0 -0 0
1.3075517416 23.7737544775 0 -0 0
5.1113597155 23.7737544775 0 -0 0
8.9151676893 23.7737544775 0 -0 0
12.7189756632 23.7737544775 0 -0 0
16.522783637 23.7737544775 9.2261812812 0.9550061577 1
20.3265916109 23.7737544775 9.2073911181 1.035226178 1
24.1303995848 23.7737544775 9.3119203296 1.1138529167 1
27.9342075586 23.7737544775 9.5322901202 1.1215087435 1
31.7380155325 23.7737544775 9.6958670311 1.173133552 1
35.5418235064 23.7737544775 9.8142295296 1.1799290688 1
39.3456314802 23.7737544775 9.9068013646 1.228550557 1
43.1494394541 23.7737544775 9.907521913 1.213841431 1
46.9532474279 23.7737544775 10.0875099348 1.0769620808 1
50.7570554018 23.7737544775 10.27871615 1.1820813966 1
54.5608633757 23.7737544775 10.3255642195 1.2447349438 1
58.3646713495 23.7737544775 10.3721265542 1.1092221509 1
62.1684793234 23.7737544775 10.432671255 1.1123714444 1
65.9722872972 23.7737544775 10.5230690215 1.0676477504 1
69.7760952711 23.7737544775 10.6581594239 1.0059787456 1
73.579903245 23.7737544775 10.7159958565 1.0729804297 1
77.3837112188 23.7737544775 10.8279852287 1.0366300051 1
81.1875191927 23.7737544775 11.0373293864 1.0509819627 1
84.9913271666 23.7737544775 10.9123515081 0.9556894364 1
88.7951351404 23.7737544775 11.1802774933 0.8836314902 1
92.5989431143 23.7737544775 11.1530146749 0.7136535007 1
96.4027510881 23.7737544775 0 -0 0
100.206559062 23.7737544775 0 -0 0
104.0103670359 23.7737544775 0 -0 0
107.8141750097 23.7737544775 11.2971554137 0.330023592 1
111.6179829836 23.7737544775 11.2433938065 0.1971507395 1
115.4217909575 23.7737544775 11.253649198 -0.0621845695 1
119.2255989313 23.7737544775 11.0975572943 -0.2141892246 1
123.0294069052 23.7737544775 11.0241731664 -0.2481668088 1
126.833214879 23.7737544775 10.8857036404 -0.0889815162 1
130.6370228529 23.7737544775 10.8813927733 0.0457051306 1
134.4408308268 23.7737544775 10.8809393247 0.0976808959 1
138.2446388006 23.7737544775 11.0137686959 0.0260235995 1
142.0484467745 23.7737544775 11.0740276619 -0.1748106331 1
145.8522547483 23.7737544775 11.1735689392 -0.3974135026 1
149.6560627222 23.7737544775 11.2345049723 -0.4013889421 1
153.4598706961 23.7737544775 11.2129692713 -0.3571683897 1
157.2636786699 23.7737544775 11.3030129753 -0.468080045 1
161.0674866438 23.7737544775 11.4494582267 -0.6802007987 1
164.8712946177 23.7737544775 10.8146426599 -0.8972411587 1
168.6751025915 23.7737544775 0 -0 0
-21.5152961016 19.9699465036 0 -0 0
-17.7114881277 19.9699465036 9.1039675757 0.1216826116 1
-13.9076801538 19.9699465036 9.1085517544 0.1483646433 1
-10.10387218 19.9699465036 9.0666232912 0.1992657975 1
-6.3000642061 19.9699465036 9.0745741702 0.3375241282 1
-2.4962562323 19.9699465036 0 -0 0
1.3075517416 19.9699465036 0 -0 0
5.1113597155 19.9699465036 0 -0 0
8.9151676893 19.9699465036 0 -0 0
12.7189756632 19.9699465036 0 -0 0
16.522783637 19.9699465036 9.1321372913 0.9778494056 1
20.3265916109 19.9699465036 9.1331249396 1.0856241907 1
24.1303995848 19.9699465036 9.2909064051 1.1299099652 1
27.9342075586 19.9699465036 9.4390598531 1.1963619206 1
31.7380155325 19.9699465036 9.6647405824 1.2693050232 1
35.5418235064 19.9699465036 9.6859222208 1.3020744465 1
39.3456314802 19.9699465036 9.8786627071 1.4328974631 1
43.1494394541 19.9699465036 9.9349213872 1.3054411468 1
46.9532474279 19.9699465036 10.1131328845 1.1820223862 1
50.7570554018 19.9699465036 10.2296505307 1.262730019 1
54.5608633757 19.9699465036 10.3269556233 1.2539902638 1
58.3646713495 19.9699465036 10.3845684374 1.1769630183 1
62.1684793234 19.9699465036 10.474767432 1.2625964691 1
65.9722872972 19.9699465036 10.5838062826 1.1470633653 1
69.7760952711 19.9699465036 10.6460219103 1.0795119525 1
73.579903245 19.9699465036 10.75934057 1.1835721864 1
77.3837112188 19.9699465036 10.9210974749 1.0911525362 1
81.1875191927 19.9699465036 11.0042400644 1.0655575388 1
84.9913271666 19.9699465036 11.0352671271 1.0802169719 1
88.7951351404 19.9699465036 11.2971678369 0.9603139905 1
92.5989431143 19.9699465036 11.1255220263 0.7581659994 1
96.4027510881 19.9699465036 0 -0 0
100.206559062 19.9699465036 0 -0 0
104.0103670359 19.9699465036 0 -0 0
107.8141750097 19.9699465036 11.4680496178 0.292638932 1
111.6179829836 19.9699465036 11.4350969516 -0.0164856505 1
115.4217909575 19.9699465036 11.3729310169 -0.2771160832 1
119.2255989313 19.9699465036 11.1633135477 -0.3446612844 1
123.0294069052 19.9699465036 10.9755796305 -0.3812632798 1
126.833214879 19.9699465036 10.7819322471 -0.1898613985 1
130.6370228529 19.9699465036 10.7443643441 0.1476689413 1
134.4408308268 19.9699465036 10.7851995614 0.2411259328 1
138.2446388006 19.9699465036 11.1474366364 0.129329121 1
142.0484467745 19.9699465036 11.3496374263 -0.111958314 1
145.8522547483 19.9699465036 11.3050193299 -0.3850927461 1
149.6560627222 19.9699465036 11.1604251425 -0.2934775012 1
153.4598706961 19.9699465036 11.1683076936 -0.1105979683 1
157.2636786699 19.9699465036 11.3168462623 -0.2715225156 1
161.0674866438 19.9699465036 11.6765489946 -0.539644167 1
164.8712946177 19.9699465036 11.0992965491 -0.894476986 1
168.6751025915 19.9699465036 0 -0 0
-21.5152961016 16.1661385298 0 -0 0
-17.7114881277 16.1661385298 9.0799969181 0.0461213094 1
-13.9076801538 16.1661385298 9.0532869341 0.0828133734 1
-10.10387218 16.1661385298 8.9570750874 0.2856073734 1
-6.3000642061 16.1661385298 8.9543109146 0.4622100601 1
-2.4962562323 16.1661385298 0 -0 0
1.3075517416 16.1661385298 0 -0 0
5.1113597155 16.1661385298 0 -0 0
8.9151676893 16.1661385298 0 -0 0
12.7189756632 16.1661385298 0 -0 0
16.522783637 16.1661385298 8.9951399203 1.0864751832 1
20.3265916109 16.1661385298 9.0814007451 1.2438497873 1
24.1303995848 16.1661385298 9.3615077253 1.3056399187 1
27.9342075586 16.1661385298 9.4066041168 1.3573703248 1
31.7380155325 16.1661385298 9.6114510586 1.4224557228 1
35.5418235064 16.1661385298 9.6683060546 1.4594179924 1
39.3456314802 16.1661385298 9.8436726281 1.5654193589 1
43.1494394541 16.1661385298 9.8802404596 1.48315882 1
46.9532474279 16.1661385298 10.0534950809 1.3901645946 1
50.7570554018 16.1661385298 10.2623485203 1.4941906645 1
54.5608633757 16.1661385298 10.3170853525 1.395661882 1
58.3646713495 16.1661385298 10.3739527717 1.3066803658 1
62.1684793234 16.1661385298 10.494880671 1.3630974423 1
65.9722872972 16.1661385298 10.5503380516 1.2099281077 1
69.7760952711 16.1661385298 10.638605231 1.2292555763 1
73.579903245 16.1661385298 10.7949890811 1.2813027752 1
77.3837112188 16.1661385298 10.9735794875 1.2194349985 1
81.1875191927 16.1661385298 10.9255449978 1.1240896734 1
84.9913271666 16.1661385298 0 -0 0
88.7951351404 16.1661385298 0 -0 0
92.5989431143 16.1661385298 0 -0 0
96.4027510881 16.1661385298 0 -0 0
100.206559062 16.1661385298 0 -0 0
104.0103670359 16.1661385298 0 -0 0
107.8141750097 16.1661385298 0 -0 0
111.6179829836 16.1661385298 0 -0 0
115.4217909575 16.1661385298 11.6641505928 -0.426710628 1
119.2255989313 16.1661385298 11.4003304911 -0.5899645344 1
123.0294069052 16.1661385298 11.0097808332 -0.6409246991 1
126.833214879 16.1661385298 10.5974097395 -0.3735049612 1
130.6370228529 16.1661385298 10.5457228148 -0.1561105386 1
134.4408308268 16.1661385298 10.6917208293 0.5143845973 1
138.2446388006 16.1661385298 11.6270734081 0.1601387769 1
142.0484467745 16.1661385298 11.714688367 -0.2743891802 1
145.8522547483 16.1661385298 11.3144175172 -0.3186780605 1
149.6560627222 16.1661385298 11.0703441688 -0.203753696 1
153.4598706961 16.1661385298 10.9068355858 0.1757516942 1
157.2636786699 16.1661385298 11.0086006246 0.4045040716 1
161.0674866438 16.1661385298 11.6222407645 0.0186690364 1
164.8712946177 16.1661385298 11.5425083567 -0.8275094658 1
168.6751025915 16.1661385298 0 -0 0
-21.5152961016 12.3623305559 0 -0 0
-17.7114881277 12.3623305559 9.0201727657 -0.1079114409 1
-13.9076801538 12.3623305559 8.9649576385 0.2234662853 1
-10.10387218 12.3623305559 8.8679072225 0.295878294 1
-6.3000642061 12.3623305559 8.8301281243 0.4088739492 1
-2.4962562323 12.3623305559 8.7938522391 0.5305161853 1
1.3075517416 12.3623305559 0 -0 0
5.1113597155 12.3623305559 0 -0 0
8.9151676893 12.3623305559 0 -0 0
12.7189756632 12.3623305559 0 -0 0
16.522783637 12.3623305559 8.8999716264 1.1823081209 1
20.3265916109 12.3623305559 9.0498332711 1.4539082818 1
24.1303995848 12.3623305559 9.2880987509 1.4925507958 1
27.9342075586 12.3623305559 9.3772790391 1.5700687596 1
31.7380155325 12.3623305559 9.5268425258 1.6395426701 1
35.5418235064 12.3623305559 9.7217135992 1.5978719893 1
39.3456314802 12.3623305559 9.988192276 1.6548263713 1
43.1494394541 12.3623305559 10.0250769003 1.732477885 1
46.9532474279 12.3623305559 10.1296868629 1.4947310758 1
50.7570554018 12.3623305559 10.2371603843 1.6241968526 1
54.5608633757 12.3623305559 0 -0 0
58.3646713495 12.3623305559 0 -0 0
62.1684793234 12.3623305559 0 -0 0
65.9722872972 12.3623305559 0 -0 0
69.7760952711 12.3623305559 0 -0 0
73.579903245 12.3623305559 0 -0 0
77.3837112188 12.3623305559 0 -0 0
81.1875191927 12.3623305559 0 -0 0
84.9913271666 12.3623305559 0 -0 0
88.7951351404 12.3623305559 0 -0 0
92.5989431143 12.3623305559 0 -0 0
96.4027510881 12.3623305559 0 -0 0
100.206559062 12.3623305559 0 -0 0
104.0103670359 12.3623305559 0 -0 0
107.8141750097 12.3623305559 0 -0 0
111.6179829836 12.3623305559 0 -0 0
115.4217909575 12.3623305559 11.827423134 -0.582501268 1
119.2255989313 12.3623305559 11.3675393271 -0.8747675025 1
123.0294069052 12.3623305559 10.7828453558 -1.2276995645 1
126.833214879 12.3623305559 10.0183745579 -1.0293499816 1
130.6370228529 12.3623305559 10.074912761 -0.3418008315 1
134.4408308268 12.3623305559 10.285145181 0.3972302597 1
138.2446388006 12.3623305559 11.6282598283 -0.3851672856 1
142.0484467745 12.3623305559 11.4843861894 -0.3031769524 1
145.8522547483 12.3623305559 11.1058684474 0.0424409221 1
149.6560627222 12.3623305559 11.0946005612 -0.3027545619 1
153.4598706961 12.3623305559 10.7476689282 -0.1145330322 1
157.2636786699 12.3623305559 10.3930721509 0.7965848949 1
161.0674866438 12.3623305559 10.5588790348 1.1631887417 1
164.8712946177 12.3623305559 11.1845821489 -1.4618809014 1
168.6751025915 12.3623305559 0 -0 0
-21.5152961016 8.5585225821 0 -0 0
-17.7114881277 8.5585225821 8.9149975453 -0.058656367 1
-13.9076801538 8.5585225821 8.8084309211 0.161359361 1
-10.10387218 8.5585225821 8.7536506075 0.2690689241 1
-6.3000642061 8.5585225821 8.6471398879 0.2675129122 1
-2.4962562323 8.5585225821 8.6672717618 0.4276051019 1
1.3075517416 8.5585225821 0 -0 0
5.1113597155 8.5585225821 0 -0 0
8.9151676893 8.5585225821 0 -0 0
12.7189756632 8.5585225821 0 -0 0
16.522783637 8.5585225821 8.7443145364 1.2585899715 1
20.3265916109 8.5585225821 9.0479449374 1.6633890952 1
24.1303995848 8.5585225821 9.202633014 1.6874187633 1
27.9342075586 8.5585225821 9.3434256874 1.7884104549 1
31.7380155325 8.5585225821 9.4908710103 1.8940546529 1
35.5418235064 8.5585225821 0 -0 0
39.3456314802 8.5585225821 0 -0 0
43.1494394541 8.5585225821 0 -0 0
46.9532474279 8.5585225821 0 -0 0
50.7570554018 8.5585225821 0 -0 0
54.5608633757 8.5585225821 0 -0 0
58.3646713495 8.5585225821 0 -0 0
62.1684793234 8.5585225821 0 -0 0
65.9722872972 8.5585225821 0 -0 0
69.7760952711 8.5585225821 0 -0 0
73.579903245 8.5585225821 0 -0 0
77.3837112188 8.5585225821 0 -0 0
81.1875191927 8.5585225821 0 -0 0
84.9913271666 8.5585225821 0 -0 0
88.7951351404 8.5585225821 0 -0 0
92.5989431143 8.5585225821 0 -0 0
96.4027510881 8.5585225821 0 -0 0
100.206559062 8.5585225821 0 -0 0
104.0103670359 8.5585225821 0 -0 0
107.8141750097 8.5585225821 0 -0 0
111.6179829836 8.5585225821 0 -0 0
115.4217909575 8.5585225821 11.6728592899 -0.662842415 1
119.2255989313 8.5585225821 11.7162847544 -1.2691155686 1
123.0294069052 8.5585225821 10.7261456504 -2.1098526881 1
126.833214879 8.5585225821 9.3435437083 -1.7074264048 1
130.6370228529 8.5585225821 8.7984426294 -1.4448082524 1
134.4408308268 8.5585225821 9.0998182108 0.2679694666 1
138.2446388006 8.5585225821 9.8413370574 -0.1590175787 1
142.0484467745 8.5585225821 10.1676026169 -0.1983092074 1
145.8522547483 8.5585225821 10.679148502 0.294539689 1
149.6560627222 8.5585225821 11.0026623119 -0.4033704502 1
153.4598706961 8.5585225821 9.2935649802 -0.9652926073 1
157.2636786699 8.5585225821 9.2813964085 0.433537203 1
161.0674866438 8.5585225821 9.1250933095 0.7652565684 1
164.8712946177 8.5585225821 9.2158451386 -1.8659843233 1
168.6751025915 8.5585225821 0 -0 0
-21.5152961016 4.7547146082 0 -0 0
-17.7114881277 4.7547146082 8.827289412 -0.0821176715 1
-13.9076801538 4.7547146082 8.692192798 0.0396394796 1
-10.10387218 4.7547146082 8.6600787011 0.0311140255 1
-6.3000642061 4.7547146082 8.4639156098 0.0682315857 1
-2.4962562323 4.7547146082 8.4738107271 0.3286632463 1
1.3075517416 4.7547146082 0 -0 0
5.1113597155 4.7547146082 0 -0 0
8.9151676893 4.7547146082 0 -0 0
12.7189756632 4.7547146082 0 -0 0
16.522783637 4.7547146082 8.5607361957 1.4943335319 1
20.3265916109 4.7547146082 8.907630559 1.9269110389 1
24.1303995848 4.7547146082 0 -0 0
27.9342075586 4.7547146082 0 -0 0
31.7380155325 4.7547146082 0 -0 0
35.5418235064 4.7547146082 0 -0 0
39.3456314802 4.7547146082 0 -0 0
43.1494394541 4.7547146082 0 -0 0
46.9532474279 4.7547146082 0 -0 0
50.7570554018 4.7547146082 0 -0 0
54.5608633757 4.7547146082 0 -0 0
58.3646713495 4.7547146082 0 -0 0
62.1684793234 4.7547146082 0 -0 0
65.9722872972 4.7547146082 0 -0 0
69.7760952711 4.7547146082 0 -0 0
73.579903245 4.7547146082 0 -0 0
77.3837112188 4.7547146082 0 -0 0
81.1875191927 4.7547146082 0 -0 0
84.9913271666 4.7547146082 0 -0 0
88.7951351404 4.7547146082 0 -0 0
92.5989431143 4.7547146082 0 -0 0
96.4027510881 4.7547146082 0 -0 0
100.206559062 4.7547146082 0 -0 0
104.0103670359 4.7547146082 0 -0 0
107.8141750097 4.7547146082 -4.901210616 1.1997441499 1
111.6179829836 4.7547146082 -3.6753931737 1.9721254513 1
115.4217909575 4.7547146082 -3.03867685 2.2273921464 1
119.2255989313 4.7547146082 -3.3057052555 0.9912820428 1
123.0294069052 4.7547146082 2.6565687893 -2.4988556516 1
126.833214879 4.7547146082 7.3366300558 -2.8745408929 1
130.6370228529 4.7547146082 7.2055709975 -2.7590854345 1
134.4408308268 4.7547146082 5.5311904333 -0.3634793998 1
138.2446388006 4.7547146082 5.9384245138 -2.2849832199 1
142.0484467745 4.7547146082 5.317641006 0.3906210916 1
145.8522547483 4.7547146082 4.6703773445 1.0374188813 1
149.6560627222 4.7547146082 5.9300263979 -2.5775569298 1
153.4598706961 4.7547146082 6.6004283595 -3.0705052122 1
157.2636786699 4.7547146082 8.0513208977 -1.1535451952 1
161.0674866438 4.7547146082 6.5364362073 -0.7634365625 1
164.8712946177 4.7547146082 6.7083429061 0.3709488779 1
168.6751025915 4.7547146082 0 -0 0
-21.5152961016 0.9509066343 0 -0 0
-17.7114881277 0.9509066343 8.7515386553 -0.1645428184 1
-13.9076801538 0.9509066343 8.5649663118 -0.1736273187 1
-10.10387218 0.9509066343 8.5065149284 -0.2191274658 1
-6.3000642061 0.9509066343 8.2251283536 0.0572494341 1
-2.4962562323 0.9509066343 8.175901232 0.2443994587 1
1.3075517416 0.9509066343 0 -0 0
5.1113597155 0.9509066343 0 -0 0
8.9151676893 0.9509066343 0 -0 0
12.7189756632 0.9509066343 0 -0 0
16.522783637 0.9509066343 0 -0 0
20.3265916109 0.9509066343 0 -0 0
24.1303995848 0.9509066343 0 -0 0
27.9342075586 0.9509066343 0 -0 0
31.7380155325 0.9509066343 0 -0 0
35.5418235064 0.9509066343 0 -0 0
39.3456314802 0.9509066343 0 -0 0
43.1494394541 0.9509066343 0 -0 0
46.9532474279 0.9509066343 0 -0 0
50.7570554018 0.9509066343 0 -0 0
54.5608633757 0.9509066343 0 -0 0
58.3646713495 0.9509066343 0 -0 0
62.1684793234 0.9509066343 0 -0 0
65.9722872972 0.9509066343 0 -0 0
69.7760952711 0.9509066343 0 -0 0
73.579903245 0.9509066343 0 -0 0
77.3837112188 0.9509066343 0 -0 0
81.1875191927 0.9509066343 0 -0 0
84.9913271666 0.9509066343 0 -0 0
88.7951351404 0.9509066343 0 -0 0
92.5989431143 0.9509066343 0 -0 0
96.4027510881 0.9509066343 0 -0 0
100.206559062 0.9509066343 -3.2654943064 -0.4380219956 1
104.0103670359 0.9509066343 -5.236408491 0.8271988846 1
107.8141750097 0.9509066343 -5.0160262771 1.201874737 1
111.6179829836 0.9509066343 -4.1698819388 1.3297720786 1
115.4217909575 0.9509066343 -3.7808882927 1.8339820356 1
119.2255989313 0.9509066343 -3.6545997618 0.8584247193 1
123.0294069052 0.9509066343 -3.1544397838 -0.0766203841 1
126.833214879 0.9509066343 -1.5505269899 0.5946512048 1
130.6370228529 0.9509066343 -0.8575613036 0.9779456857 1
134.4408308268 0.9509066343 4.7887087849 -1.7156568068 1
138.2446388006 0.9509066343 0.8736991032 0.3913198993 1
142.0484467745 0.9509066343 5.9577116068 -1.4973182173 1
145.8522547483 0.9509066343 2.2474650099 4.0938081776 1
149.6560627222 0.9509066343 1.8463058979 4.9609074301 1
153.4598706961 0.9509066343 7.9155969097 -2.9117236752 1
157.2636786699 0.9509066343 4.8245125866 -2.5441011221 1
161.0674866438 0.9509066343 5.3075409051 -1.8845135982 1
164.8712946177 0.9509066343 5.8794699888 1.0305798831 1
168.6751025915 0.9509066343 0 -0 0
-21.5152961016 -2.8529013395 0 -0 0
-17.7114881277 -2.8529013395 8.6812106465 -0.4322017038 1
-13.9076801538 -2.8529013395 8.4931102434 -0.492507257 1
-10.10387218 -2.8529013395 8.3215513955 -0.3602182971 1
-6.3000642061 -2.8529013395 7.9049501858 -0.0600881464 1