TITLE = "B00005"
VARIABLES = "x", "y", "Vx", "Vy", "isValid"
ZONE T="Frame 0", I=51, J=39, F=POINT
-21.5152961016 42.7927943468 0 -0 0
-17.7114881277 42.7927943468 0 -0 0
-13.9076801538 42.7927943468 0 -0 0
-10.10387218 42.7927943468 0 -0 0
-6.3000642061 42.7927943468 0 -0 0
-2.4962562323 42.7927943468 0 -0 0
1.3075517416 42.7927943468 0 -0 0
5.1113597155 42.7927943468 0 -0 0
8.9151676893 42.7927943468 0 -0 0
12.7189756632 42.7927943468 0 -0 0
16.522783637 42.7927943468 0 -0 0
20.3265916109 42.7927943468 0 -0 0
24.1303995848 42.7927943468 0 -0 0
27.9342075586 42.7927943468 0 -0 0
31.7380155325 42.7927943468 0 -0 0
35.5418235064 42.7927943468 0 -0 0
39.3456314802 42.7927943468 0 -0 0
43.1494394541 42.7927943468 0 -0 0
46.9532474279 42.7927943468 0 -0 0
50.7570554018 42.7927943468 0 -0 0
54.5608633757 42.7927943468 0 -0 0
58.3646713495 42.7927943468 0 -0 0
62.1684793234 42.7927943468 0 -0 0
65.9722872972 42.7927943468 0 -0 0
69.7760952711 42.7927943468 0 -0 0
73.579903245 42.7927943468 0 -0 0
77.3837112188 42.7927943468 0 -0 0
81.1875191927 42.7927943468 0 -0 0
84.9913271666 42.7927943468 0 -0 0
88.7951351404 42.7927943468 0 -0 0
92.5989431143 42.7927943468 0 -0 0
96.4027510881 42.7927943468 0 -0 0
100.206559062 42.7927943468 0 -0 0
104.0103670359 42.7927943468 0 -0 0
107.8141750097 42.7927943468 0 -0 0
111.6179829836 42.7927943468 0 -0 0
115.4217909575 42.7927943468 0 -0 0
119.2255989313 42.7927943468 0 -0 0
123.0294069052 42.7927943468 0 -0 0
126.833214879 42.7927943468 0 -0 0
130.6370228529 42.7927943468 0 -0 0
134.4408308268 42.7927943468 0 -0 0
138.2446388006 42.7927943468 0 -0 0
142.0484467745 42.7927943468 0 -0 0
145.8522547483 42.7927943468 0 -0 0
149.6560627222 42.7927943468 0 -0 0
153.4598706961 42.7927943468 0 -0 0
157.2636786699 42.7927943468 0 -0 0
161.0674866438 42.7927943468 0 -0 0
164.8712946177 42.7927943468 0 -0 0
168.6751025915 42.7927943468 0 -0 0
-21.5152961016 38.9889863729 0 -0 0
-17.7114881277 38.9889863729 9.5272959744 0.3241256549 1
-13.9076801538 38.9889863729 9.4633162455 0.2695441133 1
-10.10387218 38.9889863729 9.4216114008 0.2843650486 1
-6.3000642061 38.9889863729 0 -0 0
-2.4962562323 38.9889863729 0 -0 0
1.3075517416 38.9889863729 0 -0 0
5.1113597155 38.9889863729 0 -0 0
8.9151676893 38.9889863729 0 -0 0
12.7189756632 38.9889863729 0 -0 0
16.522783637 38.9889863729 0 -0 0
20.3265916109 38.9889863729 9.4227729745 0.8002839171 1
24.1303995848 38.9889863729 9.5215937034 0.812449383 1
27.9342075586 38.9889863729 9.7041347028 0.9225224691 1
31.7380155325 38.9889863729 9.7960108359 0.9850300431 1
35.5418235064 38.9889863729 9.7811899006 0.9836262161 1
39.3456314802 38.9889863729 9.8789298069 1.0266572425 1
43.1494394541 38.9889863729 9.9733589175 0.9560714512 1
46.9532474279 38.9889863729 10.1582727574 0.9101737603 1
50.7570554018 38.9889863729 10.2093757894 0.8997755014 1
54.5608633757 38.9889863729 10.2055680638 0.8427217334 1
58.3646713495 38.9889863729 10.1584466828 0.8609776969 1
62.1684793234 38.9889863729 10.3674802593 0.8784323608 1
65.9722872972 38.9889863729 10.4853893093 0.8751495174 1
69.7760952711 38.9889863729 10.6667997931 0.8038773417 1
73.579903245 38.9889863729 10.6756637808 0.8888772068 1
77.3837112188 38.9889863729 10.6371579226 0.8502098464 1
81.1875191927 38.9889863729 10.5481267134 0.6110871624 1
84.9913271666 38.9889863729 10.6939011094 0.8087627841 1
88.7951351404 38.9889863729 10.6367355321 0.6468319537 1
92.5989431143 38.9889863729 0 -0 0
96.4027510881 38.9889863729 0 -0 0
100.206559062 38.9889863729 0 -0 0
104.0103670359 38.9889863729 10.8200219265 0.5081170686 1
107.8141750097 38.9889863729 10.8688763506 0.4117685661 1
111.6179829836 38.9889863729 10.8659693104 0.2867968995 1
115.4217909575 38.9889863729 10.8413961252 0.2777155049 1
119.2255989313 38.9889863729 10.8556704376 0.1878022451 1
123.0294069052 38.9889863729 10.9064007722 0.1030073636 1
126.833214879 38.9889863729 10.8880143646 0.033204237 1
130.6370228529 38.9889863729 10.8430235708 -0.1088307612 1
134.4408308268 38.9889863729 10.7198594868 -0.1983247364 1
138.2446388006 38.9889863729 10.7231205895 -0.2571550289 1
142.0484467745 38.9889863729 10.7830379162 -0.2202393465 1
145.8522547483 38.9889863729 10.775273386 -0.2491979384 1
149.6560627222 38.9889863729 10.6996903431 -0.1588684997 1
153.4598706961 38.9889863729 10.7873239369 -0.2772403157 1
157.2636786699 38.9889863729 10.6811797031 -0.270342307 1
161.0674866438 38.9889863729 10.6699677214 -0.3544973913 1
164.8712946177 38.9889863729 10.6939632256 -0.2861353615 1
168.6751025915 38.9889863729 0 -0 0
-21.5152961016 35.1851783991 0 -0 0
-17.7114881277 35.1851783991 9.4542721207 0.2093627926 1
-13.9076801538 35.1851783991 9.4428551555 0.3060933099 1
-10.10387218 35.1851783991 9.3642781097 0.3516648906 1
-6.3000642061 35.1851783991 0 -0 0
-2.4962562323 35.1851783991 0 -0 0
1.3075517416 35.1851783991 0 -0 0
5.1113597155 35.1851783991 0 -0 0
8.9151676893 35.1851783991 0 -0 0
12.7189756632 35.1851783991 0 -0 0
16.522783637 35.1851783991 0 -0 0
20.3265916109 35.1851783991 9.2704515267 0.8150706884 1
24.1303995848 35.1851783991 9.3851429553 0.8685807248 1
27.9342075586 35.1851783991 9.5571117704 0.9688891377 1
31.7380155325 35.1851783991 9.8075209755 1.021691049 1
35.5418235064 35.1851783991 9.8331687717 0.9933722544 1
39.3456314802 35.1851783991 9.8873217112 1.0036990795 1
43.1494394541 35.1851783991 10.0428856268 1.0077676934 1
46.9532474279 35.1851783991 10.1544526085 0.9456825098 1
50.7570554018 35.1851783991 10.3061715288 0.9344456817 1
54.5608633757 35.1851783991 10.3354469135 0.9104998705 1
58.3646713495 35.1851783991 10.2681688121 0.8958559666 1
62.1684793234 35.1851783991 10.2928351717 0.8844327897 1
65.9722872972 35.1851783991 10.4996884681 0.9042882464 1
69.7760952711 35.1851783991 10.6606378619 1.105088315 1
73.579903245 35.1851783991 10.6758811877 0.9777407022 1
77.3837112188 35.1851783991 10.6687129734 0.8895138983 1
81.1875191927 35.1851783991 10.7469173216 0.7841895989 1
84.9913271666 35.1851783991 10.9367507678 0.821953168 1
88.7951351404 35.1851783991 10.6968019379 0.7943580277 1
92.5989431143 35.1851783991 0 -0 0
96.4027510881 35.1851783991 0 -0 0
100.206559062 35.1851783991 0 -0 0
104.0103670359 35.1851783991 10.9050590613 0.4630144655 1
107.8141750097 35.1851783991 10.9588268801 0.35858464 1
111.6179829836 35.1851783991 10.9425648481 0.2601863015 1
115.4217909575 35.1851783991 10.8809269014 0.1879606415 1
119.2255989313 35.1851783991 10.9146932904 0.0884038352 1
123.0294069052 35.1851783991 10.9187184229 0.0704926169 1
126.833214879 35.1851783991 10.9546526687 -0.0725020773 1
130.6370228529 35.1851783991 10.9215571351 -0.1713973457 1
134.4408308268 35.1851783991 10.7871934927 -0.2028467988 1
138.2446388006 35.1851783991 10.8041201686 -0.297101984 1
142.0484467745 35.1851783991 10.791684497 -0.2669818184 1
145.8522547483 35.1851783991 10.817021712 -0.3229361289 1
149.6560627222 35.1851783991 10.738631015 -0.252955971 1
153.4598706961 35.1851783991 10.7927963777 -0.4286641838 1
157.2636786699 35.1851783991 10.7065976692 -0.3764648001 1
161.0674866438 35.1851783991 10.6916649247 -0.4016808884 1
164.8712946177 35.1851783991 10.7227851617 -0.438776708 1
168.6751025915 35.1851783991 0 -0 0
-21.5152961016 31.3813704252 0 -0 0
-17.7114881277 31.3813704252 9.3188400789 0.1381900029 1
-13.9076801538 31.3813704252 9.3411087516 0.2395606035 1
-10.10387218 31.3813704252 9.317566696 0.3854281738 1
-6.3000642061 31.3813704252 9.3091499452 0.5161797567 1
-2.4962562323 31.3813704252 0 -0 0
1.3075517416 31.3813704252 0 -0 0
5.1113597155 31.3813704252 0 -0 0
8.9151676893 31.3813704252 0 -0 0
12.7189756632 31.3813704252 0 -0 0
16.522783637 31.3813704252 0 -0 0
20.3265916109 31.3813704252 9.3172933845 0.8627511156 1
24.1303995848 31.3813704252 9.3142248422 0.9731192538 1
27.9342075586 31.3813704252 9.5593044737 1.0281387148 1
31.7380155325 31.3813704252 9.6705919323 1.0546437152 1
35.5418235064 31.3813704252 9.7603126318 1.0247347448 1
39.3456314802 31.3813704252 9.8479710721 1.0464133131 1
43.1494394541 31.3813704252 10.0072743855 1.0911339013 1
46.9532474279 31.3813704252 10.0877832463 1.0722039767 1
50.7570554018 31.3813704252 10.2450739935 1.0376456056 1
54.5608633757 31.3813704252 10.2673364545 1.0073049274 1
58.3646713495 31.3813704252 10.3399317062 0.948406307 1
62.1684793234 31.3813704252 10.3845187444 1.0233153887 1
65.9722872972 31.3813704252 10.5056267808 0.9833094232 1
69.7760952711 31.3813704252 10.5612642985 0.8756091776 1
73.579903245 31.3813704252 10.6627436025 1.0685608591 1
77.3837112188 31.3813704252 10.646108873 1.0496029821 1
81.1875191927 31.3813704252 10.7272513195 0.9128571819 1
84.9913271666 31.3813704252 10.8314264684 0.8462778883 1
88.7951351404 31.3813704252 11.0288132496 0.8132941639 1
92.5989431143 31.3813704252 10.9638893538 0.7104483026 1
96.4027510881 31.3813704252 0 -0 0
100.206559062 31.3813704252 0 -0 0
104.0103670359 31.3813704252 11.0270802065 0.4590794016 1
107.8141750097 31.3813704252 11.1213353916 0.2698515887 1
111.6179829836 31.3813704252 11.0982095148 0.2233700051 1
115.4217909575 31.3813704252 11.0420067394 0.1016470179 1
119.2255989313 31.3813704252 11.0623373853 -0.0210822524 1
123.0294069052 31.3813704252 11.0183590862 -0.0179143241 1
126.833214879 31.3813704252 11.0405283728 -0.246840627 1
130.6370228529 31.3813704252 11.006196726 -0.3423101846 1
134.4408308268 31.3813704252 10.948366505 -0.2979995636 1
138.2446388006 31.3813704252 10.9005866919 -0.3897638875 1
142.0484467745 31.3813704252 10.8312960243 -0.398745896 1
145.8522547483 31.3813704252 10.850241478 -0.510589295 1
149.6560627222 31.3813704252 10.8236867847 -0.459964558 1
153.4598706961 31.3813704252 10.8198355777 -0.4772639313 1
157.2636786699 31.3813704252 10.6959447337 -0.4696081045 1
161.0674866438 31.3813704252 10.7302453224 -0.4700398124 1
164.8712946177 31.3813704252 0 -0 0
168.6751025915 31.3813704252 0 -0 0
-21.5152961016 27.5775624514 0 -0 0
-17.7114881277 27.5775624514 9.2187024857 0.1628035636 1
-13.9076801538 27.5775624514 9.2276161664 0.26004654 1
-10.10387218 27.5775624514 9.1908619862 0.4118896928 1
-6.3000642061 27.5775624514 9.1951852766 0.4796243485 1
-2.4962562323 27.5775624514 0 -0 0
1.3075517416 27.5775624514 0 -0 0
5.1113597155 27.5775624514 0 -0 0
8.9151676893 27.5775624514 0 -0 0
12.7189756632 27.5775624514 0 -0 0
16.522783637 27.5775624514 0 -0 0
20.3265916109 27.5775624514 9.2412506815 0.9493939553 1
24.1303995848 27.5775624514 9.3447177052 1.0505129851 1
27.9342075586 27.5775624514 9.6122461465 1.0877299313 1
31.7380155325 27.5775624514 9.6556778227 1.1526507213 1
35.5418235064 27.5775624514 9.6845121821 1.15819149 1
39.3456314802 27.5775624514 9.8461386429 1.1383608799 1
43.1494394541 27.5775624514 9.9979693725 1.1529116095 1
46.9532474279 27.5775624514 10.1052938148 1.1022930842 1
50.7570554018 27.5775624514 10.2078166717 1.0898636242 1
54.5608633757 27.5775624514 10.186920768 1.1369601586 1
58.3646713495 27.5775624514 10.3156069859 1.0206785542 1
62.1684793234 27.5775624514 10.451032816 1.0329837817 1
65.9722872972 27.5775624514 10.4919487844 1.0443727946 1
69.7760952711 27.5775624514 10.5572018963 1.0247782262 1
73.579903245 27.5775624514 10.708517061 1.0692255029 1
77.3837112188 27.5775624514 10.7107532457 1.0720983791 1
81.1875191927 27.5775624514 10.8048779868 1.0715766026 1
84.9913271666 27.5775624514 10.7947840975 0.966289573 1
88.7951351404 27.5775624514 10.8851632291 0.8143252935 1
92.5989431143 27.5775624514 11.0649835372 0.6891269026 1
96.4027510881 27.5775624514 0 -0 0
100.206559062 27.5775624514 0 -0 0
104.0103670359 27.5775624514 11.1340816444 0.521381992 1
107.8141750097 27.5775624514 11.2666873971 0.3141528923 1
111.6179829836 27.5775624514 11.2728369051 0.2025890164 1
115.4217909575 27.5775624514 11.236741157 -0.0069321726 1
119.2255989313 27.5775624514 11.1704134342 -0.1446687269 1
123.0294069052 27.5775624514 11.1659596996 -0.2501607401 1
126.833214879 27.5775624514 11.1310565834 -0.4017367931 1
130.6370228529 27.5775624514 11.095414284 -0.4807331234 1
134.4408308268 27.5775624514 11.0792578495 -0.461154084 1
138.2446388006 27.5775624514 10.9371296769 -0.4859322528 1
142.0484467745 27.5775624514 10.8933563614 -0.5005016173 1
145.8522547483 27.5775624514 10.9000090109 -0.5568286253 1
149.6560627222 27.5775624514 10.8844985853 -0.5769201237 1
153.4598706961 27.5775624514 10.8649816622 -0.5544961604 1
157.2636786699 27.5775624514 10.8232209129 -0.5498125958 1
161.0674866438 27.5775624514 10.3427579952 -0.9943723259 1
164.8712946177 27.5775624514 10.3018606616 -1.1069300616 1
168.6751025915 27.5775624514 0 -0 0
-21.5152961016 23.7737544775 0 -0 0
-17.7114881277 23.7737544775 9.1100425442 0.1895849812 1
-13.9076801538 23.7737544775 9.076742027 0.2518534077 1
-10.10387218 23.7737544775 9.0739467961 0.3621345832 1
-6.3000642061 23.7737544775 9.0686979737 0.4476717538 1
-2.4962562323 23.7737544775 0 -0 0
1.3075517416 23.7737544775 0 -0 0
5.1113597155 23.7737544775 0 -0 0
8.9151676893 23.7737544775 0 -0 0
12.7189756632 23.7737544775 0 -0 0
16.522783637 23.7737544775 9.17106554 0.9201900042 1
20.3265916109 23.7737544775 9.2206715706 0.9934716404 1
24.1303995848 23.7737544775 9.3346797206 1.0786423251 1
27.9342075586 23.7737544775 9.5428188232 1.1719222853 1
31.7380155325 23.7737544775 9.6928481817 1.2145402387 1
35.5418235064 23.7737544775 9.6670078252 1.1744535221 1
39.3456314802 23.7737544775 9.8223108526 1.1360128859 1
43.1494394541 23.7737544775 10.0256048884 1.1857338316 1
46.9532474279 23.7737544775 10.0679246838 1.1950574795 1
50.7570554018 23.7737544775 10.1778083154 1.2195685484 1
54.5608633757 23.7737544775 10.2272714786 1.2582949193 1
58.3646713495 23.7737544775 10.3224894655 1.1535327719 1
62.1684793234 23.7737544775 10.4669594204 1.0887051563 1
65.9722872972 23.7737544775 10.5262121033 1.1699842585 1
69.7760952711 23.7737544775 10.5891793375 1.1638036925 1
73.579903245 23.7737544775 10.7670181374 1.1671703928 1
77.3837112188 23.7737544775 10.8102820998 1.1365874612 1
81.1875191927 23.7737544775 10.7989024043 1.0800150941 1
84.9913271666 23.7737544775 10.9045994011 1.0342198949 1
88.7951351404 23.7737544775 11.1222733469 0.908872425 1
92.5989431143 23.7737544775 11.1097320777 0.7653435312 1
96.4027510881 23.7737544775 0 -0 0
100.206559062 23.7737544775 0 -0 0
104.0103670359 23.7737544775 0 -0 0
107.8141750097 23.7737544775 11.4337614524 0.3539476625 1
111.6179829836 23.7737544775 11.5014930023 0.1516505924 1
115.4217909575 23.7737544775 11.4260217687 -0.1658348362 1
119.2255989313 23.7737544775 11.3704153091 -0.2689198451 1
123.0294069052 23.7737544775 11.3646509219 -0.4027368646 1
126.833214879 23.7737544775 11.3280085509 -0.474822763 1
130.6370228529 23.7737544775 11.2965653094 -0.5790817689 1
134.4408308268 23.7737544775 11.141442419 -0.6590595358 1
138.2446388006 23.7737544775 10.925426977 -0.6369554712 1
142.0484467745 23.7737544775 10.9006736547 -0.5998192762 1
145.8522547483 23.7737544775 10.9481677331 -0.6641685967 1
149.6560627222 23.7737544775 10.9478136705 -0.6893940025 1
153.4598706961 23.7737544775 10.4038493188 -1.0250297969 1
157.2636786699 23.7737544775 10.443777639 -1.0817947244 1
161.0674866438 23.7737544775 10.4927873537 -1.2572979536 1
164.8712946177 23.7737544775 10.3813011231 -1.3311324243 1
168.6751025915 23.7737544775 0 -0 0
-21.5152961016 19.9699465036 0 -0 0
-17.7114881277 19.9699465036 9.0300740946 0.1294129779 1
-13.9076801538 19.9699465036 9.0182595855 0.1622445175 1
-10.10387218 19.9699465036 9.0221729087 0.2448218491 1
-6.3000642061 19.9699465036 9.0225704526 0.3043913249 1
-2.4962562323 19.9699465036 0 -0 0
1.3075517416 19.9699465036 0 -0 0
5.1113597155 19.9699465036 0 -0 0
8.9151676893 19.9699465036 0 -0 0
12.7189756632 19.9699465036 0 -0 0
16.522783637 19.9699465036 9.1082722313 0.9981489934 1
20.3265916109 19.9699465036 9.1738235011 1.0033822867 1
24.1303995848 19.9699465036 9.2762283371 1.1405753239 1
27.9342075586 19.9699465036 9.3903607196 1.2837750017 1
31.7380155325 19.9699465036 9.6141344803 1.3325548862 1
35.5418235064 19.9699465036 9.7053770277 1.3729490782 1
39.3456314802 19.9699465036 9.8814765728 1.3839809227 1
43.1494394541 19.9699465036 9.9565813206 1.3742038263 1
46.9532474279 19.9699465036 10.0254682327 1.4732140097 1
50.7570554018 19.9699465036 10.2008782875 1.4291332188 1
54.5608633757 19.9699465036 10.2662121505 1.2867255231 1
58.3646713495 19.9699465036 10.4492438683 1.1585828224 1
62.1684793234 19.9699465036 10.5480024809 1.188603602 1
65.9722872972 19.9699465036 10.626672701 1.4058458398 1
69.7760952711 19.9699465036 10.6488792574 1.2613292977 1
73.579903245 19.9699465036 10.747308654 1.2120245309 1
77.3837112188 19.9699465036 10.8209350352 1.1746895638 1
81.1875191927 19.9699465036 10.80148644 1.1064362375 1
84.9913271666 19.9699465036 11.0119176319 1.0760893476 1
88.7951351404 19.9699465036 11.2543014185 0.9846573457 1
92.5989431143 19.9699465036 11.2938818877 0.9083848125 1
96.4027510881 19.9699465036 0 -0 0
100.206559062 19.9699465036 0 -0 0
104.0103670359 19.9699465036 0 -0 0
107.8141750097 19.9699465036 11.4839886454 0.3706755664 1
111.6179829836 19.9699465036 11.6247688955 0.1415908671 1
115.4217909575 19.9699465036 11.6641754393 -0.2180031618 1
119.2255989313 19.9699465036 11.7230305783 -0.4242539307 1
123.0294069052 19.9699465036 11.6471680123 -0.5951263941 1
126.833214879 19.9699465036 11.5065492644 -0.6656562807 1
130.6370228529 19.9699465036 11.3976035881 -0.7063206783 1
134.4408308268 19.9699465036 11.3115850166 -0.7854691935 1
138.2446388006 19.9699465036 10.9991713791 -0.8148594932 1
142.0484467745 19.9699465036 10.9044378989 -0.7475068524 1
145.8522547483 19.9699465036 10.9488696466 -0.7382297917 1
149.6560627222 19.9699465036 11.0790280194 -0.8247515047 1
153.4598706961 19.9699465036 10.5892600886 -0.9055771584 1
157.2636786699 19.9699465036 10.6609608664 -1.0134295888 1
161.0674866438 19.9699465036 10.5838249175 -1.0522273934 1
164.8712946177 19.9699465036 10.5261002941 -1.5872718527 1
168.6751025915 19.9699465036 0 -0 0
-21.5152961016 16.1661385298 0 -0 0
-17.7114881277 16.1661385298 8.9501491265 0.1439419668 1
-13.9076801538 16.1661385298 8.959031749 0.315826925 1
-10.10387218 16.1661385298 8.9168734558 0.4098305394 1
-6.3000642061 16.1661385298 8.925215667 0.5253263733 1
-2.4962562323 16.1661385298 0 -0 0
1.3075517416 16.1661385298 0 -0 0
5.1113597155 16.1661385298 0 -0 0
8.9151676893 16.1661385298 0 -0 0
12.7189756632 16.1661385298 0 -0 0
16.522783637 16.1661385298 9.0239494332 1.0621908385 1
20.3265916109 16.1661385298 9.0187254573 1.1216360818 1
24.1303995848 16.1661385298 9.1790536887 1.2836507692 1
27.9342075586 16.1661385298 9.3428666412 1.3511618064 1
31.7380155325 16.1661385298 9.5091766667 1.3972800101 1
35.5418235064 16.1661385298 9.6877111685 1.4541629584 1
39.3456314802 16.1661385298 9.9191128037 1.4560947735 1
43.1494394541 16.1661385298 10.0215176397 1.4743786892 1
46.9532474279 16.1661385298 10.0889634549 1.6384090487 1
50.7570554018 16.1661385298 10.2037232114 1.3531992192 1
54.5608633757 16.1661385298 10.3099792544 1.2542728927 1
58.3646713495 16.1661385298 10.5245908694 1.2019182184 1
62.1684793234 16.1661385298 10.5215906549 1.2683049517 1
65.9722872972 16.1661385298 10.6137711576 1.3415710587 1
69.7760952711 16.1661385298 10.6656382194 1.3338562215 1
73.579903245 16.1661385298 10.7040198451 1.2399147234 1
77.3837112188 16.1661385298 10.843185073 1.2400016861 1
81.1875191927 16.1661385298 10.9644297651 1.2275504855 1
84.9913271666 16.1661385298 0 -0 0
88.7951351404 16.1661385298 0 -0 0
92.5989431143 16.1661385298 0 -0 0
96.4027510881 16.1661385298 0 -0 0
100.206559062 16.1661385298 0 -0 0
104.0103670359 16.1661385298 0 -0 0
107.8141750097 16.1661385298 0 -0 0
111.6179829836 16.1661385298 0 -0 0
115.4217909575 16.1661385298 12.0555698781 -0.2141892246 1
119.2255989313 16.1661385298 12.1059896315 -0.6073663995 1
123.0294069052 16.1661385298 11.9166034222 -0.8410383833 1
126.833214879 16.1661385298 11.1318392481 -0.8881038596 1
130.6370228529 16.1661385298 11.1149684768 -0.8327769231 1
134.4408308268 16.1661385298 11.0612192929 -0.8556294884 1
138.2446388006 16.1661385298 10.8894119801 -0.9679542883 1
142.0484467745 16.1661385298 10.6232811542 -0.9451576276 1
145.8522547483 16.1661385298 10.9567584093 -0.814797377 1
149.6560627222 16.1661385298 10.6764340222 -0.8418893758 1
153.4598706961 16.1661385298 10.8104746601 -1.0315395791 1
157.2636786699 16.1661385298 10.9195072991 -1.272184111 1
161.0674866438 16.1661385298 10.7520729697 -1.4287574155 1
164.8712946177 16.1661385298 10.6804280965 -1.4768975028 1
168.6751025915 16.1661385298 0 -0 0
-21.5152961016 12.3623305559 0 -0 0
-17.7114881277 12.3623305559 8.9675665206 0.082819585 1
-13.9076801538 12.3623305559 8.8451975245 0.203604617 1
-10.10387218 12.3623305559 8.8000141703 0.3350798541 1
-6.3000642061 12.3623305559 8.8254756178 0.5019893013 1
-2.4962562323 12.3623305559 8.8025423013 0.7167313604 1
1.3075517416 12.3623305559 0 -0 0
5.1113597155 12.3623305559 0 -0 0
8.9151676893 12.3623305559 0 -0 0
12.7189756632 12.3623305559 0 -0 0
16.522783637 12.3623305559 8.9949722064 1.1399634789 1
20.3265916109 12.3623305559 9.0078116336 1.2697926357 1
24.1303995848 12.3623305559 9.1820849613 1.5511202 1
27.9342075586 12.3623305559 9.3350834761 1.5000917075 1
31.7380155325 12.3623305559 9.5733613792 1.5415046058 1
35.5418235064 12.3623305559 9.7498708916 1.5496697858 1
39.3456314802 12.3623305559 9.9016767746 1.6038755241 1
43.1494394541 12.3623305559 10.0322823844 1.7016899699 1
46.9532474279 12.3623305559 10.2204635385 1.6626126422 1
50.7570554018 12.3623305559 10.2990964889 1.6116711124 1
54.5608633757 12.3623305559 0 -0 0
58.3646713495 12.3623305559 0 -0 0
62.1684793234 12.3623305559 0 -0 0
65.9722872972 12.3623305559 0 -0 0
69.7760952711 12.3623305559 0 -0 0
73.579903245 12.3623305559 0 -0 0
77.3837112188 12.3623305559 0 -0 0
81.1875191927 12.3623305559 0 -0 0
84.9913271666 12.3623305559 0 -0 0
88.7951351404 12.3623305559 0 -0 0
92.5989431143 12.3623305559 0 -0 0
96.4027510881 12.3623305559 0 -0 0
100.206559062 12.3623305559 0 -0 0
104.0103670359 12.3623305559 0 -0 0
107.8141750097 12.3623305559 0 -0 0
111.6179829836 12.3623305559 0 -0 0
115.4217909575 12.3623305559 12.3376770013 -0.0934166159 1
119.2255989313 12.3623305559 12.4244906607 -0.7331983761 1
123.0294069052 12.3623305559 11.8448964328 -1.1870786482 1
126.833214879 12.3623305559 11.2188144097 -1.1734720855 1
130.6370228529 12.3623305559 11.0245520754 -1.0179299105 1
134.4408308268 12.3623305559 11.2682837845 -0.9885551398 1
138.2446388006 12.3623305559 11.2271690442 -1.3067238471 1
142.0484467745 12.3623305559 10.5877941453 -1.3369123406 1
145.8522547483 12.3623305559 10.3787667805 -1.1083028305 1
149.6560627222 12.3623305559 10.9666348917 -0.6292313166 1
153.4598706961 12.3623305559 11.1710656547 -1.1361122719 1
157.2636786699 12.3623305559 11.2936272112 -1.8455170217 1
161.0674866438 12.3623305559 10.9840398626 -2.0376239223 1
164.8712946177 12.3623305559 10.8361100331 -2.004590505 1
168.6751025915 12.3623305559 0 -0 0
-21.5152961016 8.5585225821 0 -0 0
-17.7114881277 8.5585225821 8.9095747974 0.0782819936 1
-13.9076801538 8.5585225821 8.7911812407 0.1339443577 1
-10.10387218 8.5585225821 8.6882794748 0.2724697883 1
-6.3000642061 8.5585225821 8.6893789323 0.4289778708 1
-2.4962562323 8.5585225821 8.6355614205 0.5863369459 1
1.3075517416 8.5585225821 0 -0 0
5.1113597155 8.5585225821 0 -0 0
8.9151676893 8.5585225821 0 -0 0
12.7189756632 8.5585225821 0 -0 0
16.522783637 8.5585225821 8.7114177748 1.3092985654 1
20.3265916109 8.5585225821 8.9344709871 1.6056924242 1
24.1303995848 8.5585225821 9.1978190053 1.8166640274 1
27.9342075586 8.5585225821 9.2775886828 1.7616725186 1
31.7380155325 8.5585225821 9.5267804096 1.8735066002 1
35.5418235064 8.5585225821 0 -0 0
39.3456314802 8.5585225821 0 -0 0
43.1494394541 8.5585225821 0 -0 0
46.9532474279 8.5585225821 0 -0 0
50.7570554018 8.5585225821 0 -0 0
54.5608633757 8.5585225821 0 -0 0
58.3646713495 8.5585225821 0 -0 0
62.1684793234 8.5585225821 0 -0 0
65.9722872972 8.5585225821 0 -0 0
69.7760952711 8.5585225821 0 -0 0
73.579903245 8.5585225821 0 -0 0
77.3837112188 8.5585225821 0 -0 0
81.1875191927 8.5585225821 0 -0 0
84.9913271666 8.5585225821 0 -0 0
88.7951351404 8.5585225821 0 -0 0
92.5989431143 8.5585225821 0 -0 0
96.4027510881 8.5585225821 0 -0 0
100.206559062 8.5585225821 0 -0 0
104.0103670359 8.5585225821 0 -0 0
107.8141750097 8.5585225821 0 -0 0
111.6179829836 8.5585225821 0.393754856 -0.4368293638 1
115.4217909575 8.5585225821 12.6109387717 -0.0691074247 1
119.2255989313 8.5585225821 12.3842703942 -1.1444327425 1
123.0294069052 8.5585225821 12.0142998471 -1.9119876119 1
126.833214879 8.5585225821 11.1955580888 -1.966196456 1
130.6370228529 8.5585225821 10.9068417975 -1.5718173318 1
134.4408308268 8.5585225821 11.2195101116 -1.2368399694 1
138.2446388006 8.5585225821 11.5710694046 -1.7410809845 1
142.0484467745 8.5585225821 10.3300490121 -2.0204612047 1
145.8522547483 8.5585225821 9.4962254303 -0.9620656686 1
149.6560627222 8.5585225821 10.4635678736 -0.0344900432 1
153.4598706961 8.5585225821 11.5809769452 -1.393826347 1
157.2636786699 8.5585225821 11.645751762 -2.1925542523 1
161.0674866438 8.5585225821 11.0085509316 -2.4911780842 1
164.8712946177 8.5585225821 10.9219608907 -2.4915507816 1
168.6751025915 8.5585225821 0 -0 0
-21.5152961016 4.7547146082 0 -0 0
-17.7114881277 4.7547146082 8.7510293021 -0.1185177891 1
-13.9076801538 4.7547146082 8.7064795336 -0.0372728508 1
-10.10387218 4.7547146082 8.6002359138 0.1383794574 1
-6.3000642061 4.7547146082 8.4746927778 0.311398037 1
-2.4962562323 4.7547146082 8.3900097055 0.4688223341 1
1.3075517416 4.7547146082 0 -0 0
5.1113597155 4.7547146082 0 -0 0
8.9151676893 4.7547146082 0 -0 0
12.7189756632 4.7547146082 0 -0 0
16.522783637 4.7547146082 8.5627363387 1.5385416611 1
20.3265916109 4.7547146082 8.8737772073 1.844072819 1
24.1303995848 4.7547146082 0 -0 0
27.9342075586 4.7547146082 0 -0 0
31.7380155325 4.7547146082 0 -0 0
35.5418235064 4.7547146082 0 -0 0
39.3456314802 4.7547146082 0 -0 0
43.1494394541 4.7547146082 0 -0 0
46.9532474279 4.7547146082 0 -0 0
50.7570554018 4.7547146082 0 -0 0
54.5608633757 4.7547146082 0 -0 0
58.3646713495 4.7547146082 0 -0 0
62.1684793234 4.7547146082 0 -0 0
65.9722872972 4.7547146082 0 -0 0
69.7760952711 4.7547146082 0 -0 0
73.579903245 4.7547146082 0 -0 0
77.3837112188 4.7547146082 0 -0 0
81.1875191927 4.7547146082 0 -0 0
84.9913271666 4.7547146082 0 -0 0
88.7951351404 4.7547146082 0 -0 0
92.5989431143 4.7547146082 0 -0 0
96.4027510881 4.7547146082 0 -0 0
100.206559062 4.7547146082 0 -0 0
104.0103670359 4.7547146082 0 -0 0
107.8141750097 4.7547146082 -2.1405443231 1.2762185609 1
111.6179829836 4.7547146082 -0.7307230439 1.0415589289 1
115.4217909575 4.7547146082 -0.5265283226 1.9211652866 1
119.2255989313 4.7547146082 -1.1375129932 1.0298158534 1
123.0294069052 4.7547146082 4.8465327943 -2.5768798628 1
126.833214879 4.7547146082 10.3926187023 -3.2653824972 1
130.6370228529 4.7547146082 10.579799785 -2.6269641885 1
134.4408308268 4.7547146082 4.9329426981 -1.6994320445 1
138.2446388006 4.7547146082 2.5889428369 -2.7122000953 1
142.0484467745 4.7547146082 8.2367875721 -2.114846834 1
145.8522547483 4.7547146082 2.4154211158 1.5663231502 1
149.6560627222 4.7547146082 3.0825619747 2.8218911665 1
153.4598706961 4.7547146082 3.5829393595 3.9219822299 1
157.2636786699 4.7547146082 11.3773536933 -2.8544338655 1
161.0674866438 4.7547146082 11.5387503241 -3.3602153634 1
164.8712946177 4.7547146082 10.7552222632 -3.9835704835 1
168.6751025915 4.7547146082 0 -0 0
-21.5152961016 0.9509066343 0 -0 0
-17.7114881277 0.9509066343 8.7102065081 -0.1589181927 1
-13.9076801538 0.9509066343 8.6098887778 -0.0700018986 1
-10.10387218 0.9509066343 8.5810978998 0.0410526241 1
-6.3000642061 0.9509066343 8.2826293585 0.200728635 1
-2.4962562323 0.9509066343 8.1329416393 0.2885019903 1
1.3075517416 0.9509066343 0 -0 0
5.1113597155 0.9509066343 0 -0 0
8.9151676893 0.9509066343 0 -0 0
12.7189756632 0.9509066343 0 -0 0
16.522783637 0.9509066343 0 -0 0
20.3265916109 0.9509066343 0 -0 0
24.1303995848 0.9509066343 0 -0 0
27.9342075586 0.9509066343 0 -0 0
31.7380155325 0.9509066343 0 -0 0
35.5418235064 0.9509066343 0 -0 0
39.3456314802 0.9509066343 0 -0 0
43.1494394541 0.9509066343 0 -0 0
46.9532474279 0.9509066343 0 -0 0
50.7570554018 0.9509066343 0 -0 0
54.5608633757 0.9509066343 0 -0 0
58.3646713495 0.9509066343 0 -0 0
62.1684793234 0.9509066343 0 -0 0
65.9722872972 0.9509066343 0 -0 0
69.7760952711 0.9509066343 0 -0 0
73.579903245 0.9509066343 0 -0 0
77.3837112188 0.9509066343 0 -0 0
81.1875191927 0.9509066343 0 -0 0
84.9913271666 0.9509066343 0 -0 0
88.7951351404 0.9509066343 0 -0 0
92.5989431143 0.9509066343 0 -0 0
96.4027510881 0.9509066343 0 -0 0
100.206559062 0.9509066343 -1.2862844978 -0.4659463521 1
104.0103670359 0.9509066343 -1.7222349168 0.7056218706 1
107.8141750097 0.9509066343 -1.9290105679 1.7898763982 1
111.6179829836 0.9509066343 -1.6307190579 1.2989034123 1
115.4217909575 0.9509066343 -1.1169431998 1.2834116216 1
119.2255989313 0.9509066343 -1.4011343229 0.8552847433 1
123.0294069052 0.9509066343 -2.2064217032 0.2992046187 1
126.833214879 0.9509066343 -2.658755281 1.2792715741 1
130.6370228529 0.9509066343 -2.4439790579 2.2476730993 1
134.4408308268 0.9509066343 -2.1604153089 2.3072922681 1
138.2446388006 0.9509066343 0.3737844843 -0.3823627373 1
142.0484467745 0.9509066343 1.1807303683 -0.452973375 1
145.8522547483 0.9509066343 1.713818166 2.1891564939 1
149.6560627222 0.9509066343 1.1071412568 6.8394889272 1
153.4598706961 0.9509066343 1.3469316904 7.7573464665 1
157.2636786699 0.9509066343 1.4689963169 6.7760402921 1
161.0674866438 0.9509066343 -0.0480966059 0.041698633 1
164.8712946177 0.9509066343 9.077568173 -5.457383915 1
168.6751025915 0.9509066343 0 -0 0
-21.5152961016 -2.8529013395 0 -0 0
-17.7114881277 -2.8529013395 8.681813174 -0.2431322874 1
-13.9076801538 -2.8529013395 8.5909930171 -0.2281933312 1
-10.10387218 -2.8529013395 8.4822274779 -0.0775241754 1