TITLE = "B00015"
VARIABLES = "x", "y", "Vx", "Vy", "isValid"
ZONE T="Frame 0", I=51, J=39, F=POINT
-21.5152961016 42.7927943468 0 -0 0
-17.7114881277 42.7927943468 0 -0 0
-13.9076801538 42.7927943468 0 -0 0
-10.10387218 42.7927943468 0 -0 0
-6.3000642061 42.7927943468 0 -0 0
-2.4962562323 42.7927943468 0 -0 0
1.3075517416 42.7927943468 0 -0 0
5.1113597155 42.7927943468 0 -0 0
8.9151676893 42.7927943468 0 -0 0
12.7189756632 42.7927943468 0 -0 0
16.522783637 42.7927943468 0 -0 0
20.3265916109 42.7927943468 0 -0 0
24.1303995848 42.7927943468 0 -0 0
27.9342075586 42.7927943468 0 -0 0
31.7380155325 42.7927943468 0 -0 0
35.5418235064 42.7927943468 0 -0 0
39.3456314802 42.7927943468 0 -0 0
43.1494394541 42.7927943468 0 -0 0
46.9532474279 42.7927943468 0 -0 0
50.7570554018 42.7927943468 0 -0 0
54.5608633757 42.7927943468 0 -0 0
58.3646713495 42.7927943468 0 -0 0
62.1684793234 42.7927943468 0 -0 0
65.9722872972 42.7927943468 0 -0 0
69.7760952711 42.7927943468 0 -0 0
73.579903245 42.7927943468 0 -0 0
77.3837112188 42.7927943468 0 -0 0
81.1875191927 42.7927943468 0 -0 0
84.9913271666 42.7927943468 0 -0 0
88.7951351404 42.7927943468 0 -0 0
92.5989431143 42.7927943468 0 -0 0
96.4027510881 42.7927943468 0 -0 0
100.206559062 42.7927943468 0 -0 0
104.0103670359 42.7927943468 0 -0 0
107.8141750097 42.7927943468 0 -0 0
111.6179829836 42.7927943468 0 -0 0
115.4217909575 42.7927943468 0 -0 0
119.2255989313 42.7927943468 0 -0 0
123.0294069052 42.7927943468 0 -0 0
126.833214879 42.7927943468 0 -0 0
130.6370228529 42.7927943468 0 -0 0
134.4408308268 42.7927943468 0 -0 0
138.2446388006 42.7927943468 0 -0 0
142.0484467745 42.7927943468 0 -0 0
145.8522547483 42.7927943468 0 -0 0
149.6560627222 42.7927943468 0 -0 0
153.4598706961 42.7927943468 0 -0 0
157.2636786699 42.7927943468 0 -0 0
161.0674866438 42.7927943468 0 -0 0
164.8712946177 42.7927943468 0 -0 0
168.6751025915 42.7927943468 0 -0 0
-21.5152961016 38.9889863729 0 -0 0
-17.7114881277 38.9889863729 10.232240778 0.5260500275 1
-13.9076801538 38.9889863729 10.3522617801 0.4878547505 1
-10.10387218 38.9889863729 10.2376759491 0.4814909416 1
-6.3000642061 38.9889863729 0 -0 0
-2.4962562323 38.9889863729 0 -0 0
1.3075517416 38.9889863729 0 -0 0
5.1113597155 38.9889863729 0 -0 0
8.9151676893 38.9889863729 0 -0 0
12.7189756632 38.9889863729 0 -0 0
16.522783637 38.9889863729 0 -0 0
20.3265916109 38.9889863729 10.5699854188 0.5099370744 1
24.1303995848 38.9889863729 10.5030054754 0.4570264598 1
27.9342075586 38.9889863729 10.4940296785 0.2468126747 1
31.7380155325 38.9889863729 10.4933215534 0.2932756235 1
35.5418235064 38.9889863729 10.5618544028 0.2264416532 1
39.3456314802 38.9889863729 10.5884090961 0.1929982687 1
43.1494394541 38.9889863729 10.561338838 0.169474848 1
46.9532474279 38.9889863729 10.5699481491 -0.0373598136 1
50.7570554018 38.9889863729 10.4891100722 -0.1103836673 1
54.5608633757 38.9889863729 10.493228379 -0.0846737548 1
58.3646713495 38.9889863729 10.4563872361 0.0759526345 1
62.1684793234 38.9889863729 10.3973084786 -0.1242076369 1
65.9722872972 38.9889863729 10.5016327065 -0.2086795139 1
69.7760952711 38.9889863729 10.4865136133 -0.3031303652 1
73.579903245 38.9889863729 10.2842134374 -0.3684300643 1
77.3837112188 38.9889863729 10.3204831109 -0.358385868 1
81.1875191927 38.9889863729 10.4548902346 -0.4060041789 1
84.9913271666 38.9889863729 10.4637852804 -0.3910248472 1
88.7951351404 38.9889863729 0 -0 0
92.5989431143 38.9889863729 0 -0 0
96.4027510881 38.9889863729 0 -0 0
100.206559062 38.9889863729 0 -0 0
104.0103670359 38.9889863729 0 -0 0
107.8141750097 38.9889863729 10.2446267565 -0.3835118878 1
111.6179829836 38.9889863729 10.2689452652 -0.397705449 1
115.4217909575 38.9889863729 10.2146618816 -0.4601043196 1
119.2255989313 38.9889863729 10.2478505895 -0.3848753393 1
123.0294069052 38.9889863729 10.2061395332 -0.3752535334 1
126.833214879 38.9889863729 10.1829763867 -0.3040652146 1
130.6370228529 38.9889863729 10.2313773622 -0.3760517271 1
134.4408308268 38.9889863729 10.234917988 -0.4078272906 1
138.2446388006 38.9889863729 10.2313897854 -0.3313994668 1
142.0484467745 38.9889863729 10.1137354121 -0.3294055354 1
145.8522547483 38.9889863729 10.0787701796 -0.3125844572 1
149.6560627222 38.9889863729 10.1654720298 -0.2846880531 1
153.4598706961 38.9889863729 10.1629314755 -0.241551429 1
157.2636786699 38.9889863729 10.0932370523 -0.2995742104 1
161.0674866438 38.9889863729 10.0764905136 -0.2545678875 1
164.8712946177 38.9889863729 10.1060578446 -0.2944278797 1
168.6751025915 38.9889863729 0 -0 0
-21.5152961016 35.1851783991 0 -0 0
-17.7114881277 35.1851783991 10.1659689597 0.4755867928 1
-13.9076801538 35.1851783991 10.267063143 0.4768757048 1
-10.10387218 35.1851783991 10.199201149 0.4903828816 1
-6.3000642061 35.1851783991 10.2666718107 0.5921479203 1
-2.4962562323 35.1851783991 0 -0 0
1.3075517416 35.1851783991 0 -0 0
5.1113597155 35.1851783991 0 -0 0
8.9151676893 35.1851783991 0 -0 0
12.7189756632 35.1851783991 0 -0 0
16.522783637 35.1851783991 0 -0 0
20.3265916109 35.1851783991 10.5436978254 0.5942722958 1
24.1303995848 35.1851783991 10.5439773484 0.5670219005 1
27.9342075586 35.1851783991 10.5014712043 0.2707771207 1
31.7380155325 35.1851783991 10.5458284125 0.2396972592 1
35.5418235064 35.1851783991 10.571867541 0.1659994443 1
39.3456314802 35.1851783991 10.5851169353 0.0758470369 1
43.1494394541 35.1851783991 10.6002422402 0.1053553575 1
46.9532474279 35.1851783991 10.6211257206 0.0346981326 1
50.7570554018 35.1851783991 10.5497044659 0.1001034293 1
54.5608633757 35.1851783991 10.5353680374 -0.1425412456 1
58.3646713495 35.1851783991 10.5612767218 -0.081018214 1
62.1684793234 35.1851783991 10.4296275591 -0.0256415846 1
65.9722872972 35.1851783991 10.4958496844 -0.0968889138 1
69.7760952711 35.1851783991 10.5427039655 -0.2681589211 1
73.579903245 35.1851783991 10.4780161114 -0.4226016386 1
77.3837112188 35.1851783991 10.469263933 -0.4561195627 1
81.1875191927 35.1851783991 10.470717453 -0.3509567655 1
84.9913271666 35.1851783991 10.4298014846 -0.3913695923 1
88.7951351404 35.1851783991 10.4055140341 -0.4627100959 1
92.5989431143 35.1851783991 0 -0 0
96.4027510881 35.1851783991 0 -0 0
100.206559062 35.1851783991 0 -0 0
104.0103670359 35.1851783991 0 -0 0
107.8141750097 35.1851783991 10.3176195521 -0.4206977758 1
111.6179829836 35.1851783991 10.3105879936 -0.3978265756 1
115.4217909575 35.1851783991 10.2289051358 -0.4273193672 1
119.2255989313 35.1851783991 10.2125312945 -0.3910403762 1
123.0294069052 35.1851783991 10.1871630214 -0.3414995677 1
126.833214879 35.1851783991 10.1667267779 -0.2899058174 1
130.6370228529 35.1851783991 10.1906601658 -0.3747379686 1
134.4408308268 35.1851783991 10.1783114569 -0.3913975446 1
138.2446388006 35.1851783991 10.1603163817 -0.2948161063 1
142.0484467745 35.1851783991 10.122959674 -0.3137149728 1
145.8522547483 35.1851783991 10.1556762985 -0.3011457513 1
149.6560627222 35.1851783991 10.1822868964 -0.3632464639 1
153.4598706961 35.1851783991 10.1292768958 -0.2905518263 1
157.2636786699 35.1851783991 10.067607891 -0.3207900127 1
161.0674866438 35.1851783991 10.1041632992 -0.2931451794 1
164.8712946177 35.1851783991 10.1088592871 -0.2609472255 1
168.6751025915 35.1851783991 0 -0 0
-21.5152961016 31.3813704252 0 -0 0
-17.7114881277 31.3813704252 10.1032315556 0.5173351188 1
-13.9076801538 31.3813704252 10.1642607631 0.5708513668 1
-10.10387218 31.3813704252 10.1617450553 0.5518034213 1
-6.3000642061 31.3813704252 10.3037117256 0.603838197 1
-2.4962562323 31.3813704252 0 -0 0
1.3075517416 31.3813704252 0 -0 0
5.1113597155 31.3813704252 0 -0 0
8.9151676893 31.3813704252 0 -0 0
12.7189756632 31.3813704252 0 -0 0
16.522783637 31.3813704252 0 -0 0
20.3265916109 31.3813704252 10.5143789593 0.5436879344 1
24.1303995848 31.3813704252 10.5784829207 0.3665727886 1
27.9342075586 31.3813704252 10.5904216624 0.2829798564 1
31.7380155325 31.3813704252 10.6288157113 0.2111393171 1
35.5418235064 31.3813704252 10.683279232 0.1791649817 1
39.3456314802 31.3813704252 10.6230264776 0.127692358 1
43.1494394541 31.3813704252 10.6359528675 0.1180953987 1
46.9532474279 31.3813704252 10.654059752 -0.0096994511 1
50.7570554018 31.3813704252 10.6183739711 -0.0187311527 1
54.5608633757 31.3813704252 10.6079508658 -0.0142649949 1
58.3646713495 31.3813704252 10.605037614 -0.1826497028 1
62.1684793234 31.3813704252 10.5228888844 -0.093661975 1
65.9722872972 31.3813704252 10.5217335223 -0.0832015999 1
69.7760952711 31.3813704252 10.5468781769 -0.4191635047 1
73.579903245 31.3813704252 10.561966212 -0.4528646716 1
77.3837112188 31.3813704252 10.5294980525 -0.4017088408 1
81.1875191927 31.3813704252 10.4708541087 -0.2772434215 1
84.9913271666 31.3813704252 10.4601514803 -0.4511067819 1
88.7951351404 31.3813704252 10.423316549 -0.4748445037 1
92.5989431143 31.3813704252 0 -0 0
96.4027510881 31.3813704252 0 -0 0
100.206559062 31.3813704252 0 -0 0
104.0103670359 31.3813704252 0 -0 0
107.8141750097 31.3813704252 10.2524658262 -0.4291269498 1
111.6179829836 31.3813704252 10.2996865932 -0.4449883321 1
115.4217909575 31.3813704252 10.2671438942 -0.4677943103 1
119.2255989313 31.3813704252 10.1996111162 -0.422067439 1
123.0294069052 31.3813704252 10.2171962242 -0.3837261888 1
126.833214879 31.3813704252 10.2093571545 -0.3885588324 1
130.6370228529 31.3813704252 10.1897408454 -0.3870245612 1
134.4408308268 31.3813704252 10.1320969731 -0.398547124 1
138.2446388006 31.3813704252 10.0896405219 -0.3410864947 1
142.0484467745 31.3813704252 10.1374265467 -0.3311572135 1
145.8522547483 31.3813704252 10.1558564356 -0.270376471 1
149.6560627222 31.3813704252 10.1332150655 -0.3130068476 1
153.4598706961 31.3813704252 10.0671917122 -0.3209825731 1
157.2636786699 31.3813704252 10.0637380492 -0.3110035988 1
161.0674866438 31.3813704252 10.1351096108 -0.2337589465 1
164.8712946177 31.3813704252 10.1445264331 -0.1909888083 1
168.6751025915 31.3813704252 0 -0 0
-21.5152961016 27.5775624514 0 -0 0
-17.7114881277 27.5775624514 10.1128098801 0.5650838738 1
-13.9076801538 27.5775624514 10.1498435834 0.6579756074 1
-10.10387218 27.5775624514 10.1591858661 0.5910888384 1
-6.3000642061 27.5775624514 10.301804757 0.5989154848 1
-2.4962562323 27.5775624514 0 -0 0
1.3075517416 27.5775624514 0 -0 0
5.1113597155 27.5775624514 0 -0 0
8.9151676893 27.5775624514 0 -0 0
12.7189756632 27.5775624514 0 -0 0
16.522783637 27.5775624514 0 -0 0
20.3265916109 27.5775624514 10.584924375 0.3630197396 1
24.1303995848 27.5775624514 10.6372324621 0.3499970696 1
27.9342075586 27.5775624514 10.6502706612 0.2939526905 1
31.7380155325 27.5775624514 10.6672283952 0.1990111209 1
35.5418235064 27.5775624514 10.7380222758 0.1723539358 1
39.3456314802 27.5775624514 10.6788938254 0.1335840835 1
43.1494394541 27.5775624514 10.6494134571 0.0628461075 1
46.9532474279 27.5775624514 10.7187724525 -0.0072365422 1
50.7570554018 27.5775624514 10.7020072789 0.007205484 1
54.5608633757 27.5775624514 10.6341577081 -0.0232252628 1
58.3646713495 27.5775624514 10.5856325001 -0.1063398999 1
62.1684793234 27.5775624514 10.5435611696 -0.2590123046 1
65.9722872972 27.5775624514 10.5321938974 -0.1718073129 1
69.7760952711 27.5775624514 10.5086891116 -0.4781211355 1
73.579903245 27.5775624514 10.530895668 -0.4403078733 1
77.3837112188 27.5775624514 10.4744816973 -0.4299065087 1
81.1875191927 27.5775624514 10.4611701867 -0.5180370324 1
84.9913271666 27.5775624514 10.5335169734 -0.5861226449 1
88.7951351404 27.5775624514 10.4593563924 -0.499399054 1
92.5989431143 27.5775624514 0 -0 0
96.4027510881 27.5775624514 0 -0 0
100.206559062 27.5775624514 0 -0 0
104.0103670359 27.5775624514 0 -0 0
107.8141750097 27.5775624514 10.2129661082 -0.5183445078 1
111.6179829836 27.5775624514 10.3095009594 -0.4771676511 1
115.4217909575 27.5775624514 10.2877913329 -0.466030209 1
119.2255989313 27.5775624514 10.1755100144 -0.4099206079 1
123.0294069052 27.5775624514 10.1936603803 -0.4298537099 1
126.833214879 27.5775624514 10.1866101868 -0.4168465688 1
130.6370228529 27.5775624514 10.2043940668 -0.4395904307 1
134.4408308268 27.5775624514 10.1913869258 -0.3735298077 1
138.2446388006 27.5775624514 10.130891918 -0.3231970171 1
142.0484467745 27.5775624514 10.1356810803 -0.3407324321 1
145.8522547483 27.5775624514 10.1005916153 -0.2379362638 1
149.6560627222 27.5775624514 10.1152448368 -0.2842470277 1
153.4598706961 27.5775624514 10.0357608939 -0.3185569338 1
157.2636786699 27.5775624514 10.0655021504 -0.2646276128 1
161.0674866438 27.5775624514 10.1274444666 -0.244129253 1
164.8712946177 27.5775624514 10.1321342429 -0.1290030107 1
168.6751025915 27.5775624514 0 -0 0
-21.5152961016 23.7737544775 0 -0 0
-17.7114881277 23.7737544775 10.1734663901 0.5650124401 1
-13.9076801538 23.7737544775 10.2184385491 0.6208425181 1
-10.10387218 23.7737544775 10.2372659819 0.6124506139 1
-6.3000642061 23.7737544775 10.336596064 0.6407694085 1
-2.4962562323 23.7737544775 0 -0 0
1.3075517416 23.7737544775 0 -0 0
5.1113597155 23.7737544775 0 -0 0
8.9151676893 23.7737544775 0 -0 0
12.7189756632 23.7737544775 0 -0 0
16.522783637 23.7737544775 0 -0 0
20.3265916109 23.7737544775 10.606838985 0.4387953428 1
24.1303995848 23.7737544775 10.7064175321 0.3768374976 1
27.9342075586 23.7737544775 10.688105664 0.3420648255 1
31.7380155325 23.7737544775 10.701988644 0.2829829622 1
35.5418235064 23.7737544775 10.7569863644 0.2488966746 1
39.3456314802 23.7737544775 10.7173313557 0.0794590964 1
43.1494394541 23.7737544775 10.6364684323 -0.0804156865 1
46.9532474279 23.7737544775 10.7322765235 -0.0774806941 1
50.7570554018 23.7737544775 10.7588374284 0.0355770774 1
54.5608633757 23.7737544775 10.7375626156 0.0035282025 1
58.3646713495 23.7737544775 10.6344682893 -0.2362746543 1
62.1684793234 23.7737544775 10.6174298042 -0.2675781343 1
65.9722872972 23.7737544775 10.5139814153 -0.2546703793 1
69.7760952711 23.7737544775 10.5983911762 -0.2410017003 1
73.579903245 23.7737544775 10.5927199633 -0.4834258625 1
77.3837112188 23.7737544775 10.4935638067 -0.4950384939 1
81.1875191927 23.7737544775 10.4658226932 -0.5754821327 1
84.9913271666 23.7737544775 10.4286896039 -0.5579995164 1
88.7951351404 23.7737544775 10.3882954119 -0.5679287977 1
92.5989431143 23.7737544775 0 -0 0
96.4027510881 23.7737544775 0 -0 0
100.206559062 23.7737544775 0 -0 0
104.0103670359 23.7737544775 0 -0 0
107.8141750097 23.7737544775 10.2893193924 -0.601424981 1
111.6179829836 23.7737544775 10.3023948613 -0.4685862924 1
115.4217909575 23.7737544775 10.2513974269 -0.4330185324 1
119.2255989313 23.7737544775 10.238719502 -0.4982188454 1
123.0294069052 23.7737544775 10.1507566921 -0.4863825956 1
126.833214879 23.7737544775 10.1556452403 -0.4040071417 1
130.6370228529 23.7737544775 10.1691493113 -0.4561692556 1
134.4408308268 23.7737544775 10.1241398826 -0.3400615767 1
138.2446388006 23.7737544775 10.1543594341 -0.2615559647 1
142.0484467745 23.7737544775 10.2005552831 -0.2711125484 1
145.8522547483 23.7737544775 10.1270717692 -0.2124158059 1
149.6560627222 23.7737544775 10.0895038662 -0.2449864572 1
153.4598706961 23.7737544775 10.0428048757 -0.2690937706 1
157.2636786699 23.7737544775 10.0733225852 -0.2226059753 1
161.0674866438 23.7737544775 10.079062126 -0.2220841989 1
164.8712946177 23.7737544775 10.1087039965 -0.1751056853 1
168.6751025915 23.7737544775 0 -0 0
-21.5152961016 19.9699465036 0 -0 0
-17.7114881277 19.9699465036 10.1849578948 0.4993679959 1
-13.9076801538 19.9699465036 10.2093571545 0.5138845616 1
-10.10387218 19.9699465036 10.2565841331 0.6250229412 1
-6.3000642061 19.9699465036 10.2418874303 0.7207471755 1
-2.4962562323 19.9699465036 0 -0 0
1.3075517416 19.9699465036 0 -0 0
5.1113597155 19.9699465036 0 -0 0
8.9151676893 19.9699465036 0 -0 0
12.7189756632 19.9699465036 0 -0 0
16.522783637 19.9699465036 10.6316668468 0.4629119737 1
20.3265916109 19.9699465036 10.7083679821 0.5905701678 1
24.1303995848 19.9699465036 10.8098597093 0.4757048137 1
27.9342075586 19.9699465036 10.81219528 0.4286579722 1
31.7380155325 19.9699465036 10.8314451033 0.3828689847 1
35.5418235064 19.9699465036 10.8886976433 0.2758986049 1
39.3456314802 19.9699465036 10.851763326 0.2038623994 1
43.1494394541 19.9699465036 10.6836146597 -0.035269602 1
46.9532474279 19.9699465036 10.7245119933 -0.130767112 1
50.7570554018 19.9699465036 10.85116701 -0.0938390063 1
54.5608633757 19.9699465036 10.7834416717 -0.1531165357 1
58.3646713495 19.9699465036 10.6865838161 -0.3116744542 1
62.1684793234 19.9699465036 10.7161822053 -0.3441923068 1
65.9722872972 19.9699465036 10.6081744842 -0.3499970696 1
69.7760952711 19.9699465036 10.6653959661 -0.2945024192 1
73.579903245 19.9699465036 10.6359652908 -0.3724707258 1
77.3837112188 19.9699465036 10.4878925938 -0.542768614 1
81.1875191927 19.9699465036 10.4795006896 -0.5425449955 1
84.9913271666 19.9699465036 10.4337023846 -0.5596487027 1
88.7951351404 19.9699465036 10.4685433846 -0.6177367061 1
92.5989431143 19.9699465036 10.4115890026 -0.6618920365 1
96.4027510881 19.9699465036 0 -0 0
100.206559062 19.9699465036 0 -0 0
104.0103670359 19.9699465036 0 -0 0
107.8141750097 19.9699465036 10.2763930025 -0.6195567119 1
111.6179829836 19.9699465036 10.2497327116 -0.5081947139 1
115.4217909575 19.9699465036 10.2034809581 -0.4473456435 1
119.2255989313 19.9699465036 10.222289756 -0.4468921949 1
123.0294069052 19.9699465036 10.1604903072 -0.4755277824 1
126.833214879 19.9699465036 10.1438431544 -0.4303661689 1
130.6370228529 19.9699465036 10.1807712601 -0.4225519456 1
134.4408308268 19.9699465036 10.0705708357 -0.3145286956 1
138.2446388006 19.9699465036 10.0927214875 -0.2540864866 1
142.0484467745 19.9699465036 10.1137664702 -0.2525956968 1
145.8522547483 19.9699465036 10.1129900172 -0.2441447821 1
149.6560627222 19.9699465036 10.0819691661 -0.2271590958 1
153.4598706961 19.9699465036 10.0148836251 -0.1977501612 1
157.2636786699 19.9699465036 10.013430105 -0.2296996501 1
161.0674866438 19.9699465036 10.0714653096 -0.1808700725 1
164.8712946177 19.9699465036 10.1241647291 -0.1850380723 1
168.6751025915 19.9699465036 0 -0 0
-21.5152961016 16.1661385298 0 -0 0
-17.7114881277 16.1661385298 10.1418430114 0.5720346812 1
-13.9076801538 16.1661385298 10.1515766265 0.5629750274 1
-10.10387218 16.1661385298 10.0960074367 0.5661150034 1
-6.3000642061 16.1661385298 10.1872872539 0.7413697677 1
-2.4962562323 16.1661385298 10.0098956909 0.8401066397 1
1.3075517416 16.1661385298 0 -0 0
5.1113597155 16.1661385298 0 -0 0
8.9151676893 16.1661385298 0 -0 0
12.7189756632 16.1661385298 0 -0 0
16.522783637 16.1661385298 10.6212623763 0.5477223843 1
20.3265916109 16.1661385298 10.8129593098 0.6855800652 1
24.1303995848 16.1661385298 10.9110160089 0.5308422956 1
27.9342075586 16.1661385298 10.8868962723 0.4794286823 1
31.7380155325 16.1661385298 10.9500622784 0.3671753162 1
35.5418235064 16.1661385298 11.0037617694 0.1601232478 1
39.3456314802 16.1661385298 10.9124384708 0.2123754303 1
43.1494394541 16.1661385298 10.7863425002 0.0803939458 1
46.9532474279 16.1661385298 10.8245998935 -0.0758439311 1
50.7570554018 16.1661385298 10.902866358 -0.120073801 1
54.5608633757 16.1661385298 10.7638067278 -0.1599555339 1
58.3646713495 16.1661385298 10.7810626197 -0.3420492964 1
62.1684793234 16.1661385298 10.7716023161 -0.4951254566 1
65.9722872972 16.1661385298 10.6979883581 -0.4638468231 1
69.7760952711 16.1661385298 10.6858756909 -0.3661628215 1
73.579903245 16.1661385298 10.6198399144 -0.4382176618 1
77.3837112188 16.1661385298 10.4869297921 -0.6339366219 1
81.1875191927 16.1661385298 10.473941286 -0.5488808522 1
84.9913271666 16.1661385298 10.4656301328 -0.6095373622 1
88.7951351404 16.1661385298 10.4893399023 -0.69779833 1
92.5989431143 16.1661385298 10.4679470686 -0.6585688175 1
96.4027510881 16.1661385298 0 -0 0
100.206559062 16.1661385298 0 -0 0
104.0103670359 16.1661385298 0 -0 0
107.8141750097 16.1661385298 10.2564164192 -0.5890265792 1
111.6179829836 16.1661385298 10.1729011323 -0.5909894524 1
115.4217909575 16.1661385298 10.1352152085 -0.5442625096 1
119.2255989313 16.1661385298 10.1375135094 -0.4497619653 1
123.0294069052 16.1661385298 10.1417746836 -0.423157579 1
126.833214879 16.1661385298 10.0564331791 -0.4436466213 1
130.6370228529 16.1661385298 10.1357245616 -0.4359286783 1
134.4408308268 16.1661385298 10.0942681819 -0.371855775 1
138.2446388006 16.1661385298 9.9723774809 -0.3733620939 1
142.0484467745 16.1661385298 10.0025100697 -0.2488376642 1
145.8522547483 16.1661385298 10.0674215423 -0.2530615686 1
149.6560627222 16.1661385298 10.1135242169 -0.2299667499 1
153.4598706961 16.1661385298 10.0371709326 -0.1993279137 1
157.2636786699 16.1661385298 10.0140574791 -0.1953524743 1
161.0674866438 16.1661385298 10.0454199695 -0.2117915376 1
164.8712946177 16.1661385298 10.0731548714 -0.2108442649 1
168.6751025915 16.1661385298 0 -0 0
-21.5152961016 12.3623305559 0 -0 0
-17.7114881277 12.3623305559 9.9393999682 0.6139227688 1
-13.9076801538 12.3623305559 9.9806451527 0.5870388594 1
-10.10387218 12.3623305559 10.0108771275 0.6312283538 1
-6.3000642061 12.3623305559 10.2096366776 0.7809005439 1
-2.4962562323 12.3623305559 9.9188332806 0.93334933 1
1.3075517416 12.3623305559 0 -0 0
5.1113597155 12.3623305559 0 -0 0
8.9151676893 12.3623305559 0 -0 0
12.7189756632 12.3623305559 0 -0 0
16.522783637 12.3623305559 10.7164306702 0.8372027054 1
20.3265916109 12.3623305559 10.9016675145 0.7495535825 1
24.1303995848 12.3623305559 11.0586352573 0.5941604865 1
27.9342075586 12.3623305559 10.9927734062 0.5095177898 1
31.7380155325 12.3623305559 11.0543865063 0.3690419093 1
35.5418235064 12.3623305559 11.1162977644 0.238162988 1
39.3456314802 12.3623305559 11.0507589178 0.1535886192 1
43.1494394541 12.3623305559 10.9799277674 -0.0854750544 1
46.9532474279 12.3623305559 10.9408690747 -0.2425235482 1
50.7570554018 12.3623305559 10.9326945773 -0.2380263323 1
54.5608633757 12.3623305559 10.8325445608 -0.3103948597 1
58.3646713495 12.3623305559 10.9058665725 -0.4871062498 1
62.1684793234 12.3623305559 10.8126114588 -0.4722480448 1
65.9722872972 12.3623305559 10.6946527159 -0.3830584392 1
69.7760952711 12.3623305559 10.7226795641 -0.4126102412 1
73.579903245 12.3623305559 10.6230264776 -0.5038900583 1
77.3837112188 12.3623305559 10.5653453356 -0.6282250335 1
81.1875191927 12.3623305559 10.5743584023 -0.4769067629 1
84.9913271666 12.3623305559 10.5168263392 -0.6550437208 1
88.7951351404 12.3623305559 10.4947937083 -0.6860397254 1
92.5989431143 12.3623305559 10.4984337201 -0.649850803 1
96.4027510881 12.3623305559 0 -0 0
100.206559062 12.3623305559 0 -0 0
104.0103670359 12.3623305559 0 -0 0
107.8141750097 12.3623305559 10.2253893565 -0.6354180943 1
111.6179829836 12.3623305559 10.1212701122 -0.602614507 1
115.4217909575 12.3623305559 10.0817579709 -0.5668510809 1
119.2255989313 12.3623305559 10.1085611292 -0.5109650982 1
123.0294069052 12.3623305559 10.116331871 -0.4836091054 1
126.833214879 12.3623305559 10.0241203102 -0.440543915 1
130.6370228529 12.3623305559 10.0474822287 -0.4629243969 1
134.4408308268 12.3623305559 10.0181385161 -0.4102529298 1
138.2446388006 12.3623305559 9.9273183592 -0.3458725511 1
142.0484467745 12.3623305559 10.0186416577 -0.2067290639 1
145.8522547483 12.3623305559 10.0572717484 -0.2220904105 1
149.6560627222 12.3623305559 10.0957465485 -0.2203946371 1
153.4598706961 12.3623305559 10.0749189727 -0.2482320308 1
157.2636786699 12.3623305559 10.0880876159 -0.191473315 1
161.0674866438 12.3623305559 10.0325246377 -0.2464244482 1
164.8712946177 12.3623305559 10.0314313919 -0.2877441721 1
168.6751025915 12.3623305559 0 -0 0
-21.5152961016 8.5585225821 0 -0 0
-17.7114881277 8.5585225821 9.7826434207 0.5425512071 1
-13.9076801538 8.5585225821 9.8566176529 0.6388903922 1
-10.10387218 8.5585225821 10.0175111421 0.7900129965 1
-6.3000642061 8.5585225821 9.7354475003 0.8926538743 1
-2.4962562323 8.5585225821 9.8711217953 1.0015156937 1
1.3075517416 8.5585225821 0 -0 0
5.1113597155 8.5585225821 0 -0 0
8.9151676893 8.5585225821 0 -0 0
12.7189756632 8.5585225821 0 -0 0
16.522783637 8.5585225821 10.7816713589 1.0129947751 1
20.3265916109 8.5585225821 11.0619957459 0.8358765236 1
24.1303995848 8.5585225821 11.1926013557 0.6476674171 1
27.9342075586 8.5585225821 11.1887874184 0.5240219322 1
31.7380155325 8.5585225821 11.1991670424 0.3960997441 1
35.5418235064 8.5585225821 11.228659834 0.1526444523 1
39.3456314802 8.5585225821 11.1515363083 0.0067302948 1
43.1494394541 8.5585225821 11.134386014 -0.1696021863 1
46.9532474279 8.5585225821 10.9734366202 -0.3682716679 1
50.7570554018 8.5585225821 10.9813191712 -0.3829062544 1
54.5608633757 8.5585225821 10.9319926637 -0.4235582288 1
58.3646713495 8.5585225821 10.9687344207 -0.5147604006 1
62.1684793234 8.5585225821 10.8875733393 -0.4975883656 1
65.9722872972 8.5585225821 10.7566944181 -0.5179252231 1
69.7760952711 8.5585225821 10.7799072576 -0.5699134116 1
73.579903245 8.5585225821 10.7004108915 -0.6100342921 1
77.3837112188 8.5585225821 10.6190572498 -0.6699112433 1
81.1875191927 8.5585225821 10.6370833831 -0.5195029757 1
84.9913271666 8.5585225821 10.6151998312 -0.554552065 1
88.7951351404 8.5585225821 10.5130931531 -0.7562341843 1
92.5989431143 8.5585225821 10.5079996213 -0.6963354925 1
96.4027510881 8.5585225821 0 -0 0
100.206559062 8.5585225821 0 -0 0
104.0103670359 8.5585225821 0 -0 0
107.8141750097 8.5585225821 10.2199479737 -0.6677713387 1
111.6179829836 8.5585225821 10.1796842259 -0.6596962273 1
115.4217909575 8.5585225821 10.1205806219 -0.6214046701 1
119.2255989313 8.5585225821 10.073937536 -0.5121732591 1
123.0294069052 8.5585225821 10.0569984369 -0.5171394527 1
126.833214879 8.5585225821 10.0444758026 -0.4877522587 1
130.6370228529 8.5585225821 10.0029697299 -0.4133898 1
134.4408308268 8.5585225821 9.805843837 -0.3978141524 1
138.2446388006 8.5585225821 9.9173983954 -0.3078015066 1
142.0484467745 8.5585225821 10.0485444164 -0.2287803297 1
145.8522547483 8.5585225821 10.0780993242 -0.2666432848 1
149.6560627222 8.5585225821 10.1122943153 -0.2484339086 1
153.4598706961 8.5585225821 10.1267052833 -0.3055994858 1
157.2636786699 8.5585225821 10.1052689683 -0.2910704969 1
161.0674866438 8.5585225821 10.0545137873 -0.2485022365 1
164.8712946177 8.5585225821 10.0588557126 -0.2782621279 1
168.6751025915 8.5585225821 0 -0 0
-21.5152961016 4.7547146082 0 -0 0
-17.7114881277 4.7547146082 9.777233096 0.5086667973 1
-13.9076801538 4.7547146082 9.8124095237 0.7027148305 1
-10.10387218 4.7547146082 9.8573506246 0.8047128051 1
-6.3000642061 4.7547146082 9.7114830542 0.9155064396 1
-2.4962562323 4.7547146082 9.9077828012 1.0244117403 1
1.3075517416 4.7547146082 0 -0 0
5.1113597155 4.7547146082 0 -0 0
8.9151676893 4.7547146082 0 -0 0
12.7189756632 4.7547146082 0 -0 0
16.522783637 4.7547146082 11.0363293149 1.1129335964 1
20.3265916109 4.7547146082 11.2770049049 0.9408685011 1
24.1303995848 4.7547146082 11.2708491853 0.6843967508 1
27.9342075586 4.7547146082 11.3951189384 0.4941005386 1
31.7380155325 4.7547146082 11.2840240402 0.3525624703 1
35.5418235064 4.7547146082 11.2708367621 0.0622901672 1
39.3456314802 4.7547146082 11.1691400512 -0.055417005 1
43.1494394541 4.7547146082 11.2245228923 -0.1811030084 1
46.9532474279 4.7547146082 11.1836317704 -0.3603145773 1
50.7570554018 4.7547146082 11.1380198141 -0.3900340931 1
54.5608633757 4.7547146082 10.9882513438 -0.4170950338 1
58.3646713495 4.7547146082 10.9758280955 -0.5189501411 1
62.1684793234 4.7547146082 10.9968482317 -0.5936449217 1
65.9722872972 4.7547146082 10.8545523452 -0.6392972536 1
69.7760952711 4.7547146082 10.8552107774 -0.6278150663 1
73.579903245 4.7547146082 10.7777766705 -0.7003699424 1
77.3837112188 4.7547146082 10.6395121282 -0.7265270917 1
81.1875191927 4.7547146082 10.6495252663 -0.6349211643 1
84.9913271666 4.7547146082 10.63485341 -0.6297810453 1
88.7951351404 4.7547146082 10.3572931957 -0.8236085659 1
92.5989431143 4.7547146082 10.3469632647 -0.8357243388 1
96.4027510881 4.7547146082 10.2440863452 -0.8519553128 1
100.206559062 4.7547146082 0 -0 0
104.0103670359 4.7547146082 0 -0 0
107.8141750097 4.7547146082 10.2601496053 -0.7436835977 1
111.6179829836 4.7547146082 10.1665528524 -0.6930060619 1
115.4217909575 4.7547146082 10.0841494462 -0.6461269343 1
119.2255989313 4.7547146082 9.9784462377 -0.563030932 1
123.0294069052 4.7547146082 9.9807631735 -0.511663906 1
126.833214879 4.7547146082 9.976607597 -0.4790559849 1
130.6370228529 4.7547146082 9.9578236455 -0.4003081195 1
134.4408308268 4.7547146082 9.8139810646 -0.3683803713 1
138.2446388006 4.7547146082 9.9659919312 -0.3409374157 1
142.0484467745 4.7547146082 10.0220891091 -0.3078760461 1
145.8522547483 4.7547146082 10.0285181401 -0.2901480707 1
149.6560627222 4.7547146082 10.0934544592 -0.303993781 1
153.4598706961 4.7547146082 10.0572220554 -0.3768778731 1
157.2636786699 4.7547146082 10.0570916113 -0.3339835024 1
161.0674866438 4.7547146082 10.0169955773 -0.2612547009 1
164.8712946177 4.7547146082 10.1476322452 -0.3098979297 1
168.6751025915 4.7547146082 0 -0 0
-21.5152961016 0.9509066343 0 -0 0
-17.7114881277 0.9509066343 9.7063646759 0.438279778 1
-13.9076801538 0.9509066343 9.6118920839 0.6333185653 1
-10.10387218 0.9509066343 9.6538205471 0.7356830258 1
-6.3000642061 0.9509066343 9.5544469836 0.8730748349 1
-2.4962562323 0.9509066343 0 -0 0
1.3075517416 0.9509066343 0 -0 0
5.1113597155 0.9509066343 0 -0 0
8.9151676893 0.9509066343 0 -0 0
12.7189756632 0.9509066343 0 -0 0
16.522783637 0.9509066343 0 -0 0
20.3265916109 0.9509066343 0 -0 0
24.1303995848 0.9509066343 0 -0 0
27.9342075586 0.9509066343 0 -0 0
31.7380155325 0.9509066343 0 -0 0
35.5418235064 0.9509066343 0 -0 0
39.3456314802 0.9509066343 0 -0 0
43.1494394541 0.9509066343 0 -0 0
46.9532474279 0.9509066343 0 -0 0
50.7570554018 0.9509066343 0 -0 0
54.5608633757 0.9509066343 0 -0 0
58.3646713495 0.9509066343 0 -0 0
62.1684793234 0.9509066343 0 -0 0
65.9722872972 0.9509066343 0 -0 0
69.7760952711 0.9509066343 0 -0 0
73.579903245 0.9509066343 0 -0 0
77.3837112188 0.9509066343 10.6746078047 -0.7121627109 1
81.1875191927 0.9509066343 10.6756265111 -0.6765794218 1
84.9913271666 0.9509066343 10.6150631754 -0.6749084949 1