TITLE = "B00003"
VARIABLES = "x", "y", "Vx", "Vy", "isValid"
ZONE T="Frame 0", I=51, J=39, F=POINT
-21.5152961016 42.7927943468 0 -0 0
-17.7114881277 42.7927943468 0 -0 0
-13.9076801538 42.7927943468 0 -0 0
-10.10387218 42.7927943468 0 -0 0
-6.3000642061 42.7927943468 0 -0 0
-2.4962562323 42.7927943468 0 -0 0
1.3075517416 42.7927943468 0 -0 0
5.1113597155 42.7927943468 0 -0 0
8.9151676893 42.7927943468 0 -0 0
12.7189756632 42.7927943468 0 -0 0
16.522783637 42.7927943468 0 -0 0
20.3265916109 42.7927943468 0 -0 0
24.1303995848 42.7927943468 0 -0 0
27.9342075586 42.7927943468 0 -0 0
31.7380155325 42.7927943468 0 -0 0
35.5418235064 42.7927943468 0 -0 0
39.3456314802 42.7927943468 0 -0 0
43.1494394541 42.7927943468 0 -0 0
46.9532474279 42.7927943468 0 -0 0
50.7570554018 42.7927943468 0 -0 0
54.5608633757 42.7927943468 0 -0 0
58.3646713495 42.7927943468 0 -0 0
62.1684793234 42.7927943468 0 -0 0
65.9722872972 42.7927943468 0 -0 0
69.7760952711 42.7927943468 0 -0 0
73.579903245 42.7927943468 0 -0 0
77.3837112188 42.7927943468 0 -0 0
81.1875191927 42.7927943468 0 -0 0
84.9913271666 42.7927943468 0 -0 0
88.7951351404 42.7927943468 0 -0 0
92.5989431143 42.7927943468 0 -0 0
96.4027510881 42.7927943468 0 -0 0
100.206559062 42.7927943468 0 -0 0
104.0103670359 42.7927943468 0 -0 0
107.8141750097 42.7927943468 0 -0 0
111.6179829836 42.7927943468 0 -0 0
115.4217909575 42.7927943468 0 -0 0
119.2255989313 42.7927943468 0 -0 0
123.0294069052 42.7927943468 0 -0 0
126.833214879 42.7927943468 0 -0 0
130.6370228529 42.7927943468 0 -0 0
134.4408308268 42.7927943468 0 -0 0
138.2446388006 42.7927943468 0 -0 0
142.0484467745 42.7927943468 0 -0 0
145.8522547483 42.7927943468 0 -0 0
149.6560627222 42.7927943468 0 -0 0
153.4598706961 42.7927943468 0 -0 0
157.2636786699 42.7927943468 0 -0 0
161.0674866438 42.7927943468 0 -0 0
164.8712946177 42.7927943468 0 -0 0
168.6751025915 42.7927943468 0 -0 0
-21.5152961016 38.9889863729 0 -0 0
-17.7114881277 38.9889863729 9.7050611889 -2.1407339651 1
-13.9076801538 38.9889863729 9.6935360201 2.6376387812 1
-10.10387218 38.9889863729 9.6090055202 2.0876426141 1
-6.3000642061 38.9889863729 0 -0 0
-2.4962562323 38.9889863729 0 -0 0
1.3075517416 38.9889863729 0 -0 0
5.1113597155 38.9889863729 0 -0 0
8.9151676893 38.9889863729 0 -0 0
12.7189756632 38.9889863729 0 -0 0
16.522783637 38.9889863729 0 -0 0
20.3265916109 38.9889863729 9.3029272685 1.8140615594 1
24.1303995848 38.9889863729 9.5699710963 1.9890551871 1
27.9342075586 38.9889863729 10.2656756262 0.0394500858 1
31.7380155325 38.9889863729 9.5972914143 0.5332563319 1
35.5418235064 38.9889863729 9.6476998572 1.0577837656 1
39.3456314802 38.9889863729 9.8994775599 1.7401871172 1
43.1494394541 38.9889863729 10.7645076017 2.1485937524 1
46.9532474279 38.9889863729 10.7025362026 2.6663950219 1
50.7570554018 38.9889863729 10.3986874097 2.1779545921 1
54.5608633757 38.9889863729 10.4796658904 1.8371874718 1
58.3646713495 38.9889863729 11.1475210782 2.0092714667 1
62.1684793234 38.9889863729 10.8132156099 3.0638432999 1
65.9722872972 38.9889863729 10.1023205297 0.3775342979 1
69.7760952711 38.9889863729 10.9103293268 0.7623615715 1
73.579903245 38.9889863729 11.2032953374 1.2358003883 1
77.3837112188 38.9889863729 10.8003300934 0.3785167713 1
81.1875191927 38.9889863729 10.7249063662 0.9634663191 1
84.9913271666 38.9889863729 10.3163485813 2.3028420763 1
88.7951351404 38.9889863729 9.9503772395 1.6728876892 1
92.5989431143 38.9889863729 0 -0 0
96.4027510881 38.9889863729 0 -0 0
100.206559062 38.9889863729 0 -0 0
104.0103670359 38.9889863729 10.9873779139 2.8269160606 1
107.8141750097 38.9889863729 10.2461395205 3.4752351427 1
111.6179829836 38.9889863729 10.4529879588 2.5978486085 1
115.4217909575 38.9889863729 10.6579470252 2.7969884093 1
119.2255989313 38.9889863729 10.5246707296 3.2428046086 1
123.0294069052 38.9889863729 10.8965369118 3.1318606892 1
126.833214879 38.9889863729 10.4328850415 3.4404329119 1
130.6370228529 38.9889863729 10.1410148667 3.6938732618 1
134.4408308268 38.9889863729 10.4735443254 2.7221314937 1
138.2446388006 38.9889863729 10.7731231377 2.1460242065 1
142.0484467745 38.9889863729 10.706277159 2.8047726217 1
145.8522547483 38.9889863729 10.5758727088 2.9749294572 1
149.6560627222 38.9889863729 10.2413405159 3.7178304978 1
153.4598706961 38.9889863729 10.3203540497 3.8210657798 1
157.2636786699 38.9889863729 10.46300163 3.6776246633 1
161.0674866438 38.9889863729 10.1431687507 3.7125780439 1
164.8712946177 38.9889863729 10.1129765873 3.0811121593 1
168.6751025915 38.9889863729 0 -0 0
-21.5152961016 35.1851783991 0 -0 0
-17.7114881277 35.1851783991 10.2970769876 -1.0629228572 1
-13.9076801538 35.1851783991 9.8801303914 1.7466487692 1
-10.10387218 35.1851783991 9.5758281492 0.934332204 1
-6.3000642061 35.1851783991 0 -0 0
-2.4962562323 35.1851783991 0 -0 0
1.3075517416 35.1851783991 0 -0 0
5.1113597155 35.1851783991 0 -0 0
8.9151676893 35.1851783991 0 -0 0
12.7189756632 35.1851783991 0 -0 0
16.522783637 35.1851783991 0 -0 0
20.3265916109 35.1851783991 9.4313667719 2.3246454283 1
24.1303995848 35.1851783991 9.7265622414 2.0917236574 1
27.9342075586 35.1851783991 9.6489846301 2.087378102 1
31.7380155325 35.1851783991 9.6319424954 2.0658014746 1
35.5418235064 35.1851783991 9.8660734642 1.8864245041 1
39.3456314802 35.1851783991 9.6249518193 1.9662315742 1
43.1494394541 35.1851783991 10.2196505262 2.1169656663 1
46.9532474279 35.1851783991 10.5392944683 3.0878005359 1
50.7570554018 35.1851783991 10.5816919743 2.7796439751 1
54.5608633757 35.1851783991 10.6160407559 1.9646445018 1
58.3646713495 35.1851783991 10.8871278396 2.1440214723 1
62.1684793234 35.1851783991 10.364414203 2.4327175023 1
65.9722872972 35.1851783991 10.064344154 0.4461562862 1
69.7760952711 35.1851783991 11.4671650204 -0.1585183045 1
73.579903245 35.1851783991 11.629575431 0.8651811916 1
77.3837112188 35.1851783991 10.8848228058 1.614959546 1
81.1875191927 35.1851783991 10.7096024536 3.6373810413 1
84.9913271666 35.1851783991 10.7574791381 3.5221671413 1
88.7951351404 35.1851783991 10.2822265243 2.1637087277 1
92.5989431143 35.1851783991 0 -0 0
96.4027510881 35.1851783991 0 -0 0
100.206559062 35.1851783991 0 -0 0
104.0103670359 35.1851783991 10.9687109193 1.9923426942 1
107.8141750097 35.1851783991 10.7235082309 2.3500007995 1
111.6179829836 35.1851783991 10.6505028998 1.9279906865 1
115.4217909575 35.1851783991 10.7396056797 2.1774633554 1
119.2255989313 35.1851783991 10.7144392457 2.4829370081 1
123.0294069052 35.1851783991 11.1064461326 2.4760219068 1
126.833214879 35.1851783991 10.5777242933 2.5444549579 1
130.6370228529 35.1851783991 10.2536970082 2.0540873687 1
134.4408308268 35.1851783991 10.2649954524 2.5699614789 1
138.2446388006 35.1851783991 10.3780932557 2.2895786853 1
142.0484467745 35.1851783991 11.3125766095 2.2928661925 1
145.8522547483 35.1851783991 11.2729375865 3.096680584 1
149.6560627222 35.1851783991 10.5048323244 3.5188796342 1
153.4598706961 35.1851783991 10.3265889771 3.6380612152 1
157.2636786699 35.1851783991 10.2003789325 3.5428368702 1
161.0674866438 35.1851783991 9.9634516932 2.9913669929 1
164.8712946177 35.1851783991 9.8885192027 2.2833815454 1
168.6751025915 35.1851783991 0 -0 0
-21.5152961016 31.3813704252 0 -0 0
-17.7114881277 31.3813704252 10.089510588 -1.4239818319 1
-13.9076801538 31.3813704252 9.7453048108 2.1413385642 1
-10.10387218 31.3813704252 9.3451358373 2.3420654374 1
-6.3000642061 31.3813704252 9.6681806489 2.6278140472 1
-2.4962562323 31.3813704252 0 -0 0
1.3075517416 31.3813704252 0 -0 0
5.1113597155 31.3813704252 0 -0 0
8.9151676893 31.3813704252 0 -0 0
12.7189756632 31.3813704252 0 -0 0
16.522783637 31.3813704252 0 -0 0
20.3265916109 31.3813704252 9.2139000634 3.3828826431 1
24.1303995848 31.3813704252 9.5905274628 3.5148363783 1
27.9342075586 31.3813704252 9.3397322336 2.7450306814 1
31.7380155325 31.3813704252 10.063399468 2.0764575323 1
35.5418235064 31.3813704252 10.0694832456 2.2482392276 1
39.3456314802 31.3813704252 9.6972769765 2.5420365619 1
43.1494394541 31.3813704252 10.0129910251 0.8711138194 1
46.9532474279 31.3813704252 9.9297452981 2.4045658607 1
50.7570554018 31.3813704252 10.2131510867 1.8734634127 1
54.5608633757 31.3813704252 10.6609322328 1.7317983058 1
58.3646713495 31.3813704252 10.1661057258 -0.3465863858 1
62.1684793234 31.3813704252 9.8817174638 0.7539727601 1
65.9722872972 31.3813704252 10.7972315234 1.8211278104 1
69.7760952711 31.3813704252 10.7977605476 1.2426399146 1
73.579903245 31.3813704252 10.4096079794 2.3664383352 1
77.3837112188 31.3813704252 10.3608999712 2.8194719352 1
81.1875191927 31.3813704252 10.7297809457 3.3020175247 1
84.9913271666 31.3813704252 10.8097391656 2.5896865218 1
88.7951351404 31.3813704252 10.2778431814 2.0360627605 1
92.5989431143 31.3813704252 10.0802526656 1.7475934551 1
96.4027510881 31.3813704252 0 -0 0
100.206559062 31.3813704252 0 -0 0
104.0103670359 31.3813704252 11.1911655697 2.3178436893 1
107.8141750097 31.3813704252 10.9334930266 1.8400971045 1
111.6179829836 31.3813704252 11.0338564632 1.9018795665 1
115.4217909575 31.3813704252 10.9860553536 2.6423999985 1
119.2255989313 31.3813704252 10.4161829937 2.1501430373 1
123.0294069052 31.3813704252 10.4708992047 2.1808642248 1
126.833214879 31.3813704252 10.4145959213 2.378228016 1
130.6370228529 31.3813704252 10.2889526884 1.9890551871 1
134.4408308268 31.3813704252 10.2578536265 2.7188061991 1
138.2446388006 31.3813704252 10.4837847212 2.0897587106 1
142.0484467745 31.3813704252 11.1083732919 1.7601010973 1
145.8522547483 31.3813704252 11.4732110105 2.4606802068 1
149.6560627222 31.3813704252 10.9217033458 2.5752895077 1
153.4598706961 31.3813704252 10.3000621953 2.7369441696 1
157.2636786699 31.3813704252 10.3585193626 2.4218347201 1
161.0674866438 31.3813704252 9.9985562236 2.3970461604 1
164.8712946177 31.3813704252 9.7999076595 1.9745825981 1
168.6751025915 31.3813704252 0 -0 0
-21.5152961016 27.5775624514 0 -0 0
-17.7114881277 27.5775624514 9.7704712449 1.8908834219 1
-13.9076801538 27.5775624514 9.3949774686 2.4007115419 1
-10.10387218 27.5775624514 9.2493824681 2.4700137041 1
-6.3000642061 27.5775624514 9.0838734876 3.4888008332 1
-2.4962562323 27.5775624514 0 -0 0
1.3075517416 27.5775624514 0 -0 0
5.1113597155 27.5775624514 0 -0 0
8.9151676893 27.5775624514 0 -0 0
12.7189756632 27.5775624514 0 -0 0
16.522783637 27.5775624514 0 -0 0
20.3265916109 27.5775624514 9.689908426 3.5582541451 1
24.1303995848 27.5775624514 9.9332973173 4.4821192287 1
27.9342075586 27.5775624514 9.5204317644 2.9592476702 1
31.7380155325 27.5775624514 9.7004133339 1.7656558507 1
35.5418235064 27.5775624514 10.0006345327 2.309114791 1
39.3456314802 27.5775624514 10.0740177382 2.8408596254 1
43.1494394541 27.5775624514 10.1763839091 0.0669971284 1
46.9532474279 27.5775624514 9.6260854424 2.8998458169 1
50.7570554018 27.5775624514 9.6309978094 2.1258457144 1
54.5608633757 27.5775624514 10.7354490615 1.2671261748 1
58.3646713495 27.5775624514 10.7298565206 2.6638254761 1
62.1684793234 27.5775624514 10.3525867348 2.9733423848 1
65.9722872972 27.5775624514 10.7713093406 2.8486816252 1
69.7760952711 27.5775624514 10.0101569672 3.13907809 1
73.579903245 27.5775624514 10.0278414884 2.674670471 1
77.3837112188 27.5775624514 10.6065183214 2.9861901139 1
81.1875191927 27.5775624514 10.2262633279 3.1637910747 1
84.9913271666 27.5775624514 10.3691376328 1.4972894626 1
88.7951351404 27.5775624514 10.6726463387 1.9478668791 1
92.5989431143 27.5775624514 11.3100448511 2.4739435977 1
96.4027510881 27.5775624514 0 -0 0
100.206559062 27.5775624514 0 -0 0
104.0103670359 27.5775624514 11.2230581677 1.9726176513 1
107.8141750097 27.5775624514 11.0895173601 2.0506109244 1
111.6179829836 27.5775624514 11.3803672742 2.544114871 1
115.4217909575 27.5775624514 11.2518144084 2.5135448333 1
119.2255989313 27.5775624514 10.6033441766 2.0054927228 1
123.0294069052 27.5775624514 10.9133145345 1.9203954113 1
126.833214879 27.5775624514 10.57054468 2.0613047694 1
130.6370228529 27.5775624514 10.3768840577 2.4038856868 1
134.4408308268 27.5775624514 10.5629116174 2.8071532303 1
138.2446388006 27.5775624514 10.9576769873 2.1340078011 1
142.0484467745 27.5775624514 10.9401814032 1.502239617 1
145.8522547483 27.5775624514 11.0158696425 2.1224448449 1
149.6560627222 27.5775624514 10.8485468649 3.0967561589 1
153.4598706961 27.5775624514 10.1512174751 2.4426933861 1
157.2636786699 27.5775624514 10.270739143 1.5569180405 1
161.0674866438 27.5775624514 10.8089456294 1.2991321352 1
164.8712946177 27.5775624514 10.4309200947 1.0242285202 1
168.6751025915 27.5775624514 0 -0 0
-21.5152961016 23.7737544775 0 -0 0
-17.7114881277 23.7737544775 9.7019626189 2.1159454055 1
-13.9076801538 23.7737544775 9.6809905905 -0.777060885 1
-10.10387218 23.7737544775 9.1659855914 1.2259378668 1
-6.3000642061 23.7737544775 8.5514484793 2.8629274895 1
-2.4962562323 23.7737544775 0 -0 0
1.3075517416 23.7737544775 0 -0 0
5.1113597155 23.7737544775 0 -0 0
8.9151676893 23.7737544775 0 -0 0
12.7189756632 23.7737544775 0 -0 0
16.522783637 23.7737544775 7.8391174764 3.0256024122 1
20.3265916109 23.7737544775 9.6070783609 2.5047025727 1
24.1303995848 23.7737544775 10.0698989074 0.1120775426 1
27.9342075586 23.7737544775 9.999538697 2.2247732283 1
31.7380155325 23.7737544775 9.4934137459 1.9901510228 1
35.5418235064 23.7737544775 9.8158539585 1.7347835135 1
39.3456314802 23.7737544775 10.1913855222 0.3132578651 1
43.1494394541 23.7737544775 9.9346576651 1.5275572008 1
46.9532474279 23.7737544775 9.7179844928 1.9848985688 1
50.7570554018 23.7737544775 9.3785399329 1.9240985803 1
54.5608633757 23.7737544775 10.2380530087 1.2563567548 1
58.3646713495 23.7737544775 10.767379447 2.2906745211 1
62.1684793234 23.7737544775 10.5955977517 2.1105418018 1
65.9722872972 23.7737544775 10.3571590148 2.8275584471 1
69.7760952711 23.7737544775 9.802363843 2.8769088417 1
73.579903245 23.7737544775 10.3443868606 1.9162387931 1
77.3837112188 23.7737544775 10.9572991129 2.7995201677 1
81.1875191927 23.7737544775 10.1148659592 4.0315418121 1
84.9913271666 23.7737544775 9.9759971228 3.597024057 1
88.7951351404 23.7737544775 10.0739799508 3.4725144472 1
92.5989431143 23.7737544775 10.8098903153 2.6375254189 1
96.4027510881 23.7737544775 0 -0 0
100.206559062 23.7737544775 0 -0 0
104.0103670359 23.7737544775 0 -0 0
107.8141750097 23.7737544775 11.2120242357 2.0293365965 1
111.6179829836 23.7737544775 11.0900841717 2.6201809847 1
115.4217909575 23.7737544775 11.1259444508 1.5860521556 1
119.2255989313 23.7737544775 11.0189682125 1.3424365397 1
123.0294069052 23.7737544775 10.9814074986 1.7761229712 1
126.833214879 23.7737544775 10.4530257463 2.4007493294 1
130.6370228529 23.7737544775 10.6266968135 2.5037578867 1
134.4408308268 23.7737544775 10.965498987 2.2569681259 1
138.2446388006 23.7737544775 11.0184014009 1.7036466642 1
142.0484467745 23.7737544775 10.7157995935 0.9332363683 1
145.8522547483 23.7737544775 10.678956841 1.2409394799 1
149.6560627222 23.7737544775 10.7484857278 1.9174102037 1
153.4598706961 23.7737544775 10.693693942 1.6109162901 1
157.2636786699 23.7737544775 10.3625248311 1.0379075729 1
161.0674866438 23.7737544775 10.626130002 0.6209609767 1
164.8712946177 23.7737544775 10.6689809572 0.4268846926 1
168.6751025915 23.7737544775 0 -0 0
-21.5152961016 19.9699465036 0 -0 0
-17.7114881277 19.9699465036 9.1091910714 1.693028394 1
-13.9076801538 19.9699465036 9.641729442 1.5747914989 1
-10.10387218 19.9699465036 9.3191002922 1.9339611017 1
-6.3000642061 19.9699465036 9.0850826856 1.6536916705 1
-2.4962562323 19.9699465036 0 -0 0
1.3075517416 19.9699465036 0 -0 0
5.1113597155 19.9699465036 0 -0 0
8.9151676893 19.9699465036 0 -0 0
12.7189756632 19.9699465036 0 -0 0
16.522783637 19.9699465036 7.9468872509 3.3141472925 1
20.3265916109 19.9699465036 8.9672614524 1.6762129838 1
24.1303995848 19.9699465036 9.611310554 0.5279283031 1
27.9342075586 19.9699465036 9.7312478837 1.8879737891 1
31.7380155325 19.9699465036 9.3252974321 1.9803640762 1
35.5418235064 19.9699465036 9.60148582 2.2548142419 1
39.3456314802 19.9699465036 10.3013847556 0.5572135679 1
43.1494394541 19.9699465036 10.0506273138 1.9985776216 1
46.9532474279 19.9699465036 10.1403724802 2.6111497869 1
50.7570554018 19.9699465036 9.9284983126 0.7211732635 1
54.5608633757 19.9699465036 10.0341142032 1.0826479001 1
58.3646713495 19.9699465036 10.4752069727 1.766713899 1
62.1684793234 19.9699465036 10.0946496797 1.2623271701 1
65.9722872972 19.9699465036 10.3148748712 1.7877992897 1
69.7760952711 19.9699465036 10.3243217308 1.7621794064 1
73.579903245 19.9699465036 10.3921501829 2.153392757 1
77.3837112188 19.9699465036 10.8024839774 3.3446795428 1
81.1875191927 19.9699465036 10.3809651011 3.969570413 1
84.9913271666 19.9699465036 10.7029518644 3.3273728959 1
88.7951351404 19.9699465036 10.5391055311 2.5513322717 1
92.5989431143 19.9699465036 10.7577814377 2.6417953995 1
96.4027510881 19.9699465036 0 -0 0
100.206559062 19.9699465036 0 -0 0
104.0103670359 19.9699465036 0 -0 0
107.8141750097 19.9699465036 11.320285247 2.4585263228 1
111.6179829836 19.9699465036 11.0185147632 2.2684555072 1
115.4217909575 19.9699465036 10.8991064576 1.0933417452 1
119.2255989313 19.9699465036 10.7866510407 1.1825201 1
123.0294069052 19.9699465036 10.8049401609 1.858235075 1
126.833214879 19.9699465036 10.3342976145 1.5515900117 1
130.6370228529 19.9699465036 10.3348644261 2.126412526 1
134.4408308268 19.9699465036 10.6085210556 1.9898487233 1
138.2446388006 19.9699465036 10.4742244993 1.3309113709 1
142.0484467745 19.9699465036 10.1040587518 1.4424976768 1
145.8522547483 19.9699465036 10.7160263181 0.3559198831 1
149.6560627222 19.9699465036 11.0962435242 0.6284428895 1
153.4598706961 19.9699465036 11.2233226798 0.9718929179 1
157.2636786699 19.9699465036 10.9913078075 1.1209643627 1
161.0674866438 19.9699465036 10.594766428 0.6506241159 1
164.8712946177 19.9699465036 10.5009024308 0.2446736642 1
168.6751025915 19.9699465036 0 -0 0
-21.5152961016 16.1661385298 0 -0 0
-17.7114881277 16.1661385298 8.6662845049 2.3841984313 1
-13.9076801538 16.1661385298 9.5655121785 2.3527592825 1
-10.10387218 16.1661385298 9.4102435938 1.8274761001 1
-6.3000642061 16.1661385298 9.0174053833 2.0298278332 1
-2.4962562323 16.1661385298 0 -0 0
1.3075517416 16.1661385298 0 -0 0
5.1113597155 16.1661385298 0 -0 0
8.9151676893 16.1661385298 0 -0 0
12.7189756632 16.1661385298 0 -0 0
16.522783637 16.1661385298 8.8398799973 2.1284530476 1
20.3265916109 16.1661385298 8.529191678 2.5510299722 1
24.1303995848 16.1661385298 9.0634304834 1.2051925631 1
27.9342075586 16.1661385298 9.2936315586 2.328499747 1
31.7380155325 16.1661385298 9.6398778575 3.4716831235 1
35.5418235064 16.1661385298 10.0925335831 1.0650767412 1
39.3456314802 16.1661385298 10.4110816895 1.0715383932 1
43.1494394541 16.1661385298 10.4611122581 0.0826789154 1
46.9532474279 16.1661385298 10.3824388112 2.100301406 1
50.7570554018 16.1661385298 10.1664836002 1.4735589512 1
54.5608633757 16.1661385298 10.2184035407 1.0269870032 1
58.3646713495 16.1661385298 10.3602953722 1.7910490094 1
62.1684793234 16.1661385298 9.5733719657 1.3540372833 1
65.9722872972 16.1661385298 9.9573301282 0.6062994505 1
69.7760952711 16.1661385298 10.6417362141 0.6307101358 1
73.579903245 16.1661385298 10.250144989 2.0154308191 1
77.3837112188 16.1661385298 10.4726752143 3.5004393642 1
81.1875191927 16.1661385298 10.7179156901 3.2969162205 1
84.9913271666 16.1661385298 0 -0 0
88.7951351404 16.1661385298 0 -0 0
92.5989431143 16.1661385298 0 -0 0
96.4027510881 16.1661385298 0 -0 0
100.206559062 16.1661385298 0 -0 0
104.0103670359 16.1661385298 0 -0 0
107.8141750097 16.1661385298 0 -0 0
111.6179829836 16.1661385298 0 -0 0
115.4217909575 16.1661385298 11.4737400347 0.9386021846 1
119.2255989313 16.1661385298 10.9388210554 0.7484557941 1
123.0294069052 16.1661385298 10.9430532486 0.683725912 1
126.833214879 16.1661385298 10.1148281718 0.8817320896 1
130.6370228529 16.1661385298 9.8600652615 1.2719629669 1
134.4408308268 16.1661385298 9.9862753061 1.1485869802 1
138.2446388006 16.1661385298 10.3128721369 1.7424543635 1
142.0484467745 16.1661385298 10.187833503 2.5334210259 1
145.8522547483 16.1661385298 10.8742801105 1.9191106384 1
149.6560627222 16.1661385298 11.5719117999 1.7621794064 1
153.4598706961 16.1661385298 11.6787368885 1.1212666622 1
157.2636786699 16.1661385298 11.4600987694 0.8968848525 1
161.0674866438 16.1661385298 10.9720740013 -1.4772621202 1
164.8712946177 16.1661385298 10.5996410076 -1.6725476023 1
168.6751025915 16.1661385298 0 -0 0
-21.5152961016 12.3623305559 0 -0 0
-17.7114881277 12.3623305559 8.9155682366 2.4956713749 1
-13.9076801538 12.3623305559 9.3823564642 1.0977628755 1
-10.10387218 12.3623305559 8.8531056007 0.6932861339 1
-6.3000642061 12.3623305559 8.2740508934 1.7157008571 1
-2.4962562323 12.3623305559 8.8321335724 2.4381588935 1
1.3075517416 12.3623305559 0 -0 0
5.1113597155 12.3623305559 0 -0 0
8.9151676893 12.3623305559 0 -0 0
12.7189756632 12.3623305559 0 -0 0
16.522783637 12.3623305559 8.266266681 2.6372986943 1
20.3265916109 12.3623305559 8.4566397961 3.818760746 1
24.1303995848 12.3623305559 8.852614364 2.6039701736 1
27.9342075586 12.3623305559 9.2740576655 2.5840939809 1
31.7380155325 12.3623305559 10.0819908878 0.6918502113 1
35.5418235064 12.3623305559 9.9987073733 1.5350391136 1
39.3456314802 12.3623305559 9.7076307347 2.4833526699 1
43.1494394541 12.3623305559 10.2377507092 1.6960136016 1
46.9532474279 12.3623305559 10.4999955323 2.318334926 1
50.7570554018 12.3623305559 10.6938073043 2.5982642703 1
54.5608633757 12.3623305559 0 -0 0
58.3646713495 12.3623305559 0 -0 0
62.1684793234 12.3623305559 0 -0 0
65.9722872972 12.3623305559 0 -0 0
69.7760952711 12.3623305559 0 -0 0
73.579903245 12.3623305559 0 -0 0
77.3837112188 12.3623305559 0 -0 0
81.1875191927 12.3623305559 0 -0 0
84.9913271666 12.3623305559 0 -0 0
88.7951351404 12.3623305559 0 -0 0
92.5989431143 12.3623305559 0 -0 0
96.4027510881 12.3623305559 0 -0 0
100.206559062 12.3623305559 0 -0 0
104.0103670359 12.3623305559 0 -0 0
107.8141750097 12.3623305559 0 -0 0
111.6179829836 12.3623305559 0 -0 0
115.4217909575 12.3623305559 12.0562333989 0.5414939935 1
119.2255989313 12.3623305559 11.7684820549 0.0944685962 1
123.0294069052 12.3623305559 11.0042311115 -0.5128889026 1
126.833214879 12.3623305559 10.3563276912 -0.5014015213 1
130.6370228529 12.3623305559 9.8314223832 -3.7300358405 1
134.4408308268 12.3623305559 9.4743310895 -3.253007217 1
138.2446388006 12.3623305559 8.3452424275 -0.2544983982 1
142.0484467745 12.3623305559 8.536598016 0.1932827479 1
145.8522547483 12.3623305559 9.453434636 -0.0191204439 1
149.6560627222 12.3623305559 10.8231537062 2.5772544545 1
153.4598706961 12.3623305559 13.0037156316 0.2179579452 1
157.2636786699 12.3623305559 12.6781390616 -1.5468287945 1
161.0674866438 12.3623305559 11.1328217646 -2.6532449933 1
164.8712946177 12.3623305559 10.1617601704 -2.2349002619 1
168.6751025915 12.3623305559 0 -0 0
-21.5152961016 8.5585225821 0 -0 0
-17.7114881277 8.5585225821 8.7321857976 0.6415551306 1
-13.9076801538 8.5585225821 8.805644578 0.9833047243 1
-10.10387218 8.5585225821 8.5365602285 0.8279227772 1
-6.3000642061 8.5585225821 8.3220787277 1.4290453487 1
-2.4962562323 8.5585225821 8.3764170642 2.0279384613 1
1.3075517416 8.5585225821 0 -0 0
5.1113597155 8.5585225821 0 -0 0
8.9151676893 8.5585225821 0 -0 0
12.7189756632 8.5585225821 0 -0 0
16.522783637 8.5585225821 10.1650476776 1.7261679775 1
20.3265916109 8.5585225821 8.8601718517 2.5956569371 1
24.1303995848 8.5585225821 9.2779119842 2.778170265 1
27.9342075586 8.5585225821 9.3995875361 2.5177392389 1
31.7380155325 8.5585225821 9.9725206785 2.3066586075 1
35.5418235064 8.5585225821 0 -0 0
39.3456314802 8.5585225821 0 -0 0
43.1494394541 8.5585225821 0 -0 0
46.9532474279 8.5585225821 0 -0 0
50.7570554018 8.5585225821 0 -0 0
54.5608633757 8.5585225821 0 -0 0
58.3646713495 8.5585225821 0 -0 0
62.1684793234 8.5585225821 0 -0 0
65.9722872972 8.5585225821 0 -0 0
69.7760952711 8.5585225821 0 -0 0
73.579903245 8.5585225821 0 -0 0
77.3837112188 8.5585225821 0 -0 0
81.1875191927 8.5585225821 0 -0 0
84.9913271666 8.5585225821 0 -0 0
88.7951351404 8.5585225821 0 -0 0
92.5989431143 8.5585225821 0 -0 0
96.4027510881 8.5585225821 0 -0 0
100.206559062 8.5585225821 0 -0 0
104.0103670359 8.5585225821 0 -0 0
107.8141750097 8.5585225821 0 -0 0
111.6179829836 8.5585225821 9.1881290304 -0.2595997024 1
115.4217909575 8.5585225821 10.6400735668 0.1940762841 1
119.2255989313 8.5585225821 11.7678396684 -1.4883338397 1
123.0294069052 8.5585225821 11.3129166965 -1.924929904 1
126.833214879 8.5585225821 10.6391288808 -2.4351736858 1
130.6370228529 8.5585225821 9.5203184021 -4.1727156823 1
134.4408308268 8.5585225821 7.8983681799 -1.8616737319 1
138.2446388006 8.5585225821 5.6928665452 1.6077799327 1
142.0484467745 8.5585225821 7.0309953169 1.6507820377 1
145.8522547483 8.5585225821 7.7209183688 2.7299534935 1
149.6560627222 8.5585225821 8.7058101655 3.7892109691 1
153.4598706961 8.5585225821 12.3462142019 1.7177035913 1
157.2636786699 8.5585225821 13.062437311 -3.4743282442 1
161.0674866438 8.5585225821 11.0732687616 -3.6964428076 1
164.8712946177 8.5585225821 9.5142724119 -5.7208670371 1
168.6751025915 8.5585225821 0 -0 0
-21.5152961016 4.7547146082 0 -0 0
-17.7114881277 4.7547146082 8.3703710741 0.071871708 1
-13.9076801538 4.7547146082 8.7299185513 1.005599313 1
-10.10387218 4.7547146082 8.7357000294 1.3202553133 1
-6.3000642061 4.7547146082 8.8916110006 1.4542873576 1
-2.4962562323 4.7547146082 8.5046676304 1.6318127436 1
1.3075517416 4.7547146082 0 -0 0
5.1113597155 4.7547146082 0 -0 0
8.9151676893 4.7547146082 0 -0 0
12.7189756632 4.7547146082 0 -0 0
16.522783637 4.7547146082 9.7462494968 1.0391545584 1
20.3265916109 4.7547146082 9.2061536385 0.7532547988 1
24.1303995848 4.7547146082 0 -0 0
27.9342075586 4.7547146082 0 -0 0
31.7380155325 4.7547146082 0 -0 0
35.5418235064 4.7547146082 0 -0 0
39.3456314802 4.7547146082 0 -0 0
43.1494394541 4.7547146082 0 -0 0
46.9532474279 4.7547146082 0 -0 0
50.7570554018 4.7547146082 0 -0 0
54.5608633757 4.7547146082 0 -0 0
58.3646713495 4.7547146082 0 -0 0
62.1684793234 4.7547146082 0 -0 0
65.9722872972 4.7547146082 0 -0 0
69.7760952711 4.7547146082 0 -0 0
73.579903245 4.7547146082 0 -0 0
77.3837112188 4.7547146082 0 -0 0
81.1875191927 4.7547146082 0 -0 0
84.9913271666 4.7547146082 0 -0 0
88.7951351404 4.7547146082 0 -0 0
92.5989431143 4.7547146082 0 -0 0
96.4027510881 4.7547146082 0 -0 0
100.206559062 4.7547146082 0 -0 0
104.0103670359 4.7547146082 0 -0 0
107.8141750097 4.7547146082 1.1906821867 1.610991865 1
111.6179829836 4.7547146082 3.4711540994 1.9229271697 1
115.4217909575 4.7547146082 6.903462712 -1.2659547642 1
119.2255989313 4.7547146082 8.0460414895 -3.9945101224 1
123.0294069052 4.7547146082 8.3482654226 -5.7134229118 1
126.833214879 4.7547146082 8.4598895158 -6.3860393168 1
130.6370228529 4.7547146082 7.7715535364 -5.086075858 1
134.4408308268 4.7547146082 5.8193033144 -1.1948010175 1
138.2446388006 4.7547146082 5.1277554026 1.9167678172 1
142.0484467745 4.7547146082 6.4231843688 2.5532594311 1
145.8522547483 4.7547146082 6.4679624835 4.5607548882 1
149.6560627222 4.7547146082 5.8016187932 6.5363577471 1
153.4598706961 4.7547146082 6.5115691875 3.9823803547 1
157.2636786699 4.7547146082 7.2007364906 -4.4724834318 1
161.0674866438 4.7547146082 8.3719581465 -7.6005275898 1
164.8712946177 4.7547146082 8.3688595765 -6.2535565575 1
168.6751025915 4.7547146082 0 -0 0
-21.5152961016 0.9509066343 0 -0 0
-17.7114881277 0.9509066343 8.3211718292 -0.2961401554 1
-13.9076801538 0.9509066343 8.4029060586 1.0046168396 1
-10.10387218 0.9509066343 8.5620289621 1.0075642598 1
-6.3000642061 0.9509066343 8.4210818165 0.8677507374 1
-2.4962562323 0.9509066343 8.0549971125 1.0738434269 1
1.3075517416 0.9509066343 0 -0 0
5.1113597155 0.9509066343 0 -0 0
8.9151676893 0.9509066343 0 -0 0
12.7189756632 0.9509066343 0 -0 0
16.522783637 0.9509066343 0 -0 0
20.3265916109 0.9509066343 0 -0 0
24.1303995848 0.9509066343 0 -0 0
27.9342075586 0.9509066343 0 -0 0
31.7380155325 0.9509066343 0 -0 0
35.5418235064 0.9509066343 0 -0 0
39.3456314802 0.9509066343 0 -0 0
43.1494394541 0.9509066343 0 -0 0
46.9532474279 0.9509066343 0 -0 0
50.7570554018 0.9509066343 0 -0 0
54.5608633757 0.9509066343 0 -0 0
58.3646713495 0.9509066343 0 -0 0
62.1684793234 0.9509066343 0 -0 0
65.9722872972 0.9509066343 0 -0 0
69.7760952711 0.9509066343 0 -0 0
73.579903245 0.9509066343 0 -0 0
77.3837112188 0.9509066343 0 -0 0
81.1875191927 0.9509066343 0 -0 0
84.9913271666 0.9509066343 0 -0 0
88.7951351404 0.9509066343 0 -0 0
92.5989431143 0.9509066343 0 -0 0
96.4027510881 0.9509066343 0 -0 0
100.206559062 0.9509066343 -3.0932419271 -1.0178802305 1
104.0103670359 0.9509066343 -4.6356873787 0.4898385651 1
107.8141750097 0.9509066343 -4.8173315955 1.9048647741 1
111.6179829836 0.9509066343 -4.221121391 2.7424611356 1
115.4217909575 0.9509066343 -1.2455873348 1.6737945878 1
119.2255989313 0.9509066343 1.2117675774 -2.2316505421 1
123.0294069052 0.9509066343 1.9486982028 -3.8600624163 1
126.833214879 0.9509066343 3.6021253612 -5.6361853875 1
130.6370228529 0.9509066343 5.0983945629 -5.3258371552 1
134.4408308268 0.9509066343 4.4305393751 -1.1582227771 1
138.2446388006 0.9509066343 4.8758643377 2.2938108785 1
142.0484467745 0.9509066343 5.313065001 3.3397671758 1
145.8522547483 0.9509066343 4.8828928013 4.9287667516 1
149.6560627222 0.9509066343 2.7676275696 6.5662098235 1
153.4598706961 0.9509066343 0.089971891 4.0160489624 1
157.2636786699 0.9509066343 1.27162288 -2.9535039796 1
161.0674866438 0.9509066343 5.0584532405 -6.1544401063 1
164.8712946177 0.9509066343 6.5598993213 -5.6351273392 1
168.6751025915 0.9509066343 0 -0 0
-21.5152961016 -2.8529013395 0 -0 0
-17.7114881277 -2.8529013395 8.6839312386 0.043946791 1
-13.9076801538 -2.8529013395 8.2112103832 0.7241206837 1
-10.10387218 -2.8529013395 8.9714180706 1.2284696252 1
-6.3000642061 -2.8529013395 8.8544281611 1.1671406125 1
-2.4962562323 -2.8529013395 8.4601540279 0.4857197343 1