TITLE = "B00055"
VARIABLES = "x", "y", "Vx", "Vy", "isValid"
ZONE T="Frame 0", I=202, J=155, F=POINT
-22.9417240918 44.219222337 0 -0 0
-21.9907720983 44.219222337 0 -0 0
-21.0398201048 44.219222337 0 -0 0
-20.0888681114 44.219222337 0 -0 0
-19.1379161179 44.219222337 0 -0 0
-18.1869641244 44.219222337 0 -0 0
-17.236012131 44.219222337 0 -0 0
-16.2850601375 44.219222337 0 -0 0
-15.334108144 44.219222337 0 -0 0
-14.3831561506 44.219222337 0 -0 0
-13.4322041571 44.219222337 0 -0 0
-12.4812521636 44.219222337 0 -0 0
-11.5303001702 44.219222337 0 -0 0
-10.5793481767 44.219222337 0 -0 0
-9.6283961833 44.219222337 0 -0 0
-8.6774441898 44.219222337 0 -0 0
-7.7264921963 44.219222337 0 -0 0
-6.7755402029 44.219222337 0 -0 0
-5.8245882094 44.219222337 0 -0 0
-4.8736362159 44.219222337 0 -0 0
-3.9226842225 44.219222337 0 -0 0
-2.971732229 44.219222337 0 -0 0
-2.0207802355 44.219222337 0 -0 0
-1.0698282421 44.219222337 0 -0 0
-0.1188762486 44.219222337 0 -0 0
0.8320757449 44.219222337 0 -0 0
1.7830277383 44.219222337 0 -0 0
2.7339797318 44.219222337 0 -0 0
3.6849317253 44.219222337 0 -0 0
4.6358837187 44.219222337 0 -0 0
5.5868357122 44.219222337 0 -0 0
6.5377877057 44.219222337 0 -0 0
7.4887396991 44.219222337 0 -0 0
8.4396916926 44.219222337 0 -0 0
9.3906436861 44.219222337 0 -0 0
10.3415956795 44.219222337 0 -0 0
11.292547673 44.219222337 0 -0 0
12.2434996665 44.219222337 0 -0 0
13.1944516599 44.219222337 0 -0 0
14.1454036534 44.219222337 0 -0 0
15.0963556468 44.219222337 0 -0 0
16.0473076403 44.219222337 0 -0 0
16.9982596338 44.219222337 0 -0 0
17.9492116272 44.219222337 0 -0 0
18.9001636207 44.219222337 0 -0 0
19.8511156142 44.219222337 0 -0 0
20.8020676076 44.219222337 0 -0 0
21.7530196011 44.219222337 0 -0 0
22.7039715946 44.219222337 0 -0 0
23.654923588 44.219222337 0 -0 0
24.6058755815 44.219222337 0 -0 0
25.556827575 44.219222337 0 -0 0
26.5077795684 44.219222337 0 -0 0
27.4587315619 44.219222337 0 -0 0
28.4096835554 44.219222337 0 -0 0
29.3606355488 44.219222337 0 -0 0
30.3115875423 44.219222337 0 -0 0
31.2625395358 44.219222337 0 -0 0
32.2134915292 44.219222337 0 -0 0
33.1644435227 44.219222337 0 -0 0
34.1153955162 44.219222337 0 -0 0
35.0663475096 44.219222337 0 -0 0
36.0172995031 44.219222337 0 -0 0
36.9682514966 44.219222337 0 -0 0
37.91920349 44.219222337 0 -0 0
38.8701554835 44.219222337 0 -0 0
39.8211074769 44.219222337 0 -0 0
40.7720594704 44.219222337 0 -0 0
41.7230114639 44.219222337 0 -0 0
42.6739634573 44.219222337 0 -0 0
43.6249154508 44.219222337 0 -0 0
44.5758674443 44.219222337 0 -0 0
45.5268194377 44.219222337 0 -0 0
46.4777714312 44.219222337 0 -0 0
47.4287234247 44.219222337 0 -0 0
48.3796754181 44.219222337 0 -0 0
49.3306274116 44.219222337 0 -0 0
50.2815794051 44.219222337 0 -0 0
51.2325313985 44.219222337 0 -0 0
52.183483392 44.219222337 0 -0 0
53.1344353855 44.219222337 0 -0 0
54.0853873789 44.219222337 0 -0 0
55.0363393724 44.219222337 0 -0 0
55.9872913659 44.219222337 0 -0 0
56.9382433593 44.219222337 0 -0 0
57.8891953528 44.219222337 0 -0 0
58.8401473463 44.219222337 0 -0 0
59.7910993397 44.219222337 0 -0 0
60.7420513332 44.219222337 0 -0 0
61.6930033267 44.219222337 0 -0 0
62.6439553201 44.219222337 0 -0 0
63.5949073136 44.219222337 0 -0 0
64.5458593071 44.219222337 0 -0 0
65.4968113005 44.219222337 0 -0 0
66.447763294 44.219222337 0 -0 0
67.3987152874 44.219222337 0 -0 0
68.3496672809 44.219222337 0 -0 0
69.3006192744 44.219222337 0 -0 0
70.2515712678 44.219222337 0 -0 0
71.2025232613 44.219222337 0 -0 0
72.1534752548 44.219222337 0 -0 0
73.1044272482 44.219222337 0 -0 0
74.0553792417 44.219222337 0 -0 0
75.0063312352 44.219222337 0 -0 0
75.9572832286 44.219222337 0 -0 0
76.9082352221 44.219222337 0 -0 0
77.8591872156 44.219222337 0 -0 0
78.810139209 44.219222337 0 -0 0
79.7610912025 44.219222337 0 -0 0
80.712043196 44.219222337 0 -0 0
81.6629951894 44.219222337 0 -0 0
82.6139471829 44.219222337 0 -0 0
83.5648991764 44.219222337 0 -0 0
84.5158511698 44.219222337 0 -0 0
85.4668031633 44.219222337 0 -0 0
86.4177551568 44.219222337 0 -0 0
87.3687071502 44.219222337 0 -0 0
88.3196591437 44.219222337 0 -0 0
89.2706111372 44.219222337 0 -0 0
90.2215631306 44.219222337 0 -0 0
91.1725151241 44.219222337 0 -0 0
92.1234671175 44.219222337 0 -0 0
93.074419111 44.219222337 0 -0 0
94.0253711045 44.219222337 0 -0 0
94.9763230979 44.219222337 0 -0 0
95.9272750914 44.219222337 0 -0 0
96.8782270849 44.219222337 0 -0 0
97.8291790783 44.219222337 0 -0 0
98.7801310718 44.219222337 0 -0 0
99.7310830653 44.219222337 0 -0 0
100.6820350587 44.219222337 0 -0 0
101.6329870522 44.219222337 0 -0 0
102.5839390457 44.219222337 0 -0 0
103.5348910391 44.219222337 0 -0 0
104.4858430326 44.219222337 0 -0 0
105.4367950261 44.219222337 0 -0 0
106.3877470195 44.219222337 0 -0 0
107.338699013 44.219222337 0 -0 0
108.2896510065 44.219222337 0 -0 0
109.2406029999 44.219222337 0 -0 0
110.1915549934 44.219222337 0 -0 0
111.1425069869 44.219222337 0 -0 0
112.0934589803 44.219222337 0 -0 0
113.0444109738 44.219222337 0 -0 0
113.9953629673 44.219222337 0 -0 0
114.9463149607 44.219222337 0 -0 0
115.8972669542 44.219222337 0 -0 0
116.8482189476 44.219222337 0 -0 0
117.7991709411 44.219222337 0 -0 0
118.7501229346 44.219222337 0 -0 0
119.701074928 44.219222337 0 -0 0
120.6520269215 44.219222337 0 -0 0
121.602978915 44.219222337 0 -0 0
122.5539309084 44.219222337 0 -0 0
123.5048829019 44.219222337 0 -0 0
124.4558348954 44.219222337 0 -0 0
125.4067868888 44.219222337 0 -0 0
126.3577388823 44.219222337 0 -0 0
127.3086908758 44.219222337 0 -0 0
128.2596428692 44.219222337 0 -0 0
129.2105948627 44.219222337 0 -0 0
130.1615468562 44.219222337 0 -0 0
131.1124988496 44.219222337 0 -0 0
132.0634508431 44.219222337 0 -0 0
133.0144028366 44.219222337 0 -0 0
133.96535483 44.219222337 0 -0 0
134.9163068235 44.219222337 0 -0 0
135.867258817 44.219222337 0 -0 0
136.8182108104 44.219222337 0 -0 0
137.7691628039 44.219222337 0 -0 0
138.7201147974 44.219222337 0 -0 0
139.6710667908 44.219222337 0 -0 0
140.6220187843 44.219222337 0 -0 0
141.5729707778 44.219222337 0 -0 0
142.5239227712 44.219222337 0 -0 0
143.4748747647 44.219222337 0 -0 0
144.4258267581 44.219222337 0 -0 0
145.3767787516 44.219222337 0 -0 0
146.3277307451 44.219222337 0 -0 0
147.2786827385 44.219222337 0 -0 0
148.229634732 44.219222337 0 -0 0
149.1805867255 44.219222337 0 -0 0
150.1315387189 44.219222337 0 -0 0
151.0824907124 44.219222337 0 -0 0
152.0334427059 44.219222337 0 -0 0
152.9843946993 44.219222337 0 -0 0
153.9353466928 44.219222337 0 -0 0
154.8862986863 44.219222337 0 -0 0
155.8372506797 44.219222337 0 -0 0
156.7882026732 44.219222337 0 -0 0
157.7391546667 44.219222337 0 -0 0
158.6901066601 44.219222337 0 -0 0
159.6410586536 44.219222337 0 -0 0
160.5920106471 44.219222337 0 -0 0
161.5429626405 44.219222337 0 -0 0
162.493914634 44.219222337 0 -0 0
163.4448666275 44.219222337 0 -0 0
164.3958186209 44.219222337 0 -0 0
165.3467706144 44.219222337 0 -0 0
166.2977226079 44.219222337 0 -0 0
167.2486746013 44.219222337 0 -0 0
168.1996265948 44.219222337 0 -0 0
-22.9417240918 43.2682703435 0 -0 0
-21.9907720983 43.2682703435 9.2332299218 0.4468852069 1
-21.0398201048 43.2682703435 9.0319779574 0.5071604784 1
-20.0888681114 43.2682703435 9.8378057491 0.2415646287 1
-19.1379161179 43.2682703435 9.3021758442 0.2120555317 1
-18.1869641244 43.2682703435 9.4210942831 0.3547217862 1
-17.236012131 43.2682703435 9.327598469 0.0953709481 1
-16.2850601375 43.2682703435 9.4982084913 0.1792449563 1
-15.334108144 43.2682703435 9.3990352528 0.5556825806 1
-14.3831561506 43.2682703435 9.0145341639 0.2809362321 1
-13.4322041571 43.2682703435 9.2874558478 0.1500774986 1
-12.4812521636 43.2682703435 9.370570485 0.3817477865 1
-11.5303001702 43.2682703435 9.0728923729 -0.0446778833 1
-10.5793481767 43.2682703435 8.8183089564 0.0687704441 1
-9.6283961833 43.2682703435 9.7232494233 0.6790772712 1
-8.6774441898 43.2682703435 0 -0 0
-7.7264921963 43.2682703435 9.0055319675 0.3237001586 1
-6.7755402029 43.2682703435 9.6041989874 0.801582923 1
-5.8245882094 43.2682703435 0 -0 0
-4.8736362159 43.2682703435 0 -0 0
-3.9226842225 43.2682703435 0 -0 0
-2.971732229 43.2682703435 0 -0 0
-2.0207802355 43.2682703435 0 -0 0
-1.0698282421 43.2682703435 0 -0 0
-0.1188762486 43.2682703435 0 -0 0
0.8320757449 43.2682703435 0 -0 0
1.7830277383 43.2682703435 0 -0 0
2.7339797318 43.2682703435 0 -0 0
3.6849317253 43.2682703435 0 -0 0
4.6358837187 43.2682703435 0 -0 0
5.5868357122 43.2682703435 0 -0 0
6.5377877057 43.2682703435 0 -0 0
7.4887396991 43.2682703435 0 -0 0
8.4396916926 43.2682703435 0 -0 0
9.3906436861 43.2682703435 0 -0 0
10.3415956795 43.2682703435 0 -0 0
11.292547673 43.2682703435 0 -0 0
12.2434996665 43.2682703435 0 -0 0
13.1944516599 43.2682703435 0 -0 0
14.1454036534 43.2682703435 0 -0 0
15.0963556468 43.2682703435 0 -0 0
16.0473076403 43.2682703435 9.5369270977 0.3405274485 1
16.9982596338 43.2682703435 9.7612692219 0.5986437263 1
17.9492116272 43.2682703435 8.9283028443 0.7330857904 1
18.9001636207 43.2682703435 10.0719901919 0.6502856167 1
19.8511156142 43.2682703435 10.0144239649 0.6103013919 1
20.8020676076 43.2682703435 8.6876722885 0.4172759474 1
21.7530196011 43.2682703435 9.2158513502 0.2719449061 1
22.7039715946 43.2682703435 9.9236752416 0.7927911455 1
23.654923588 43.2682703435 9.5805917098 0.6943128324 1
24.6058755815 43.2682703435 0 -0 0
25.556827575 43.2682703435 9.7397009099 0.9721129707 1
26.5077795684 43.2682703435 9.8832530973 0.1124412678 1
27.4587315619 43.2682703435 10.2047776346 0.501250118 1
28.4096835554 43.2682703435 9.1849920014 1.4112934342 1
29.3606355488 43.2682703435 9.396435688 1.0997913525 1
30.3115875423 43.2682703435 9.6259039551 0.8519723947 1
31.2625395358 43.2682703435 9.8817638604 1.1029126937 1
32.2134915292 43.2682703435 10.1003431504 1.2102223834 1
33.1644435227 43.2682703435 9.3046573881 0.6897488415 1
34.1153955162 43.2682703435 9.4167803101 0.7324692867 1
35.0663475096 43.2682703435 9.4528962459 0.9923411248 1
36.0172995031 43.2682703435 10.0794037653 0.8075352119 1
36.9682514966 43.2682703435 10.1054925868 0.0611480048 1
37.91920349 43.2682703435 10.1815756654 0.642107237 1
38.8701554835 43.2682703435 0 -0 0
39.8211074769 43.2682703435 0 -0 0
40.7720594704 43.2682703435 9.6341032991 0.0712713992 1
41.7230114639 43.2682703435 0 -0 0
42.6739634573 43.2682703435 0 -0 0
43.6249154508 43.2682703435 0 -0 0
44.5758674443 43.2682703435 0 -0 0
45.5268194377 43.2682703435 0 -0 0
46.4777714312 43.2682703435 8.8094636036 0.0979278079 1
47.4287234247 43.2682703435 0 -0 0
48.3796754181 43.2682703435 9.4333358414 1.0983712199 1
49.3306274116 43.2682703435 9.6458013403 0.0040818135 1
50.2815794051 43.2682703435 10.1139466073 0.5939593852 1
51.2325313985 43.2682703435 10.1877624431 0.9193863754 1
52.183483392 43.2682703435 10.6272752285 0.9473503309 1
53.1344353855 43.2682703435 10.229678483 1.0290176597 1
54.0853873789 43.2682703435 9.7718507237 0.2085389759 1
55.0363393724 43.2682703435 0 -0 0
55.9872913659 43.2682703435 9.7458938992 1.2342171111 1
56.9382433593 43.2682703435 8.9366590317 0.718854183 1
57.8891953528 43.2682703435 9.2374010274 1.124169648 1
58.8401473463 43.2682703435 0 -0 0
59.7910993397 43.2682703435 10.0438841454 0.6516785734 1
60.7420513332 43.2682703435 0 -0 0
61.6930033267 43.2682703435 0 -0 0
62.6439553201 43.2682703435 10.1153442227 0.3619327054 1
63.5949073136 43.2682703435 10.4748637121 0.9007219976 1
64.5458593071 43.2682703435 10.5753149924 0.2107534199 1
65.4968113005 43.2682703435 0 -0 0
66.447763294 43.2682703435 10.3728641846 1.2326300412 1
67.3987152874 43.2682703435 9.4785735473 0.3829800174 1
68.3496672809 43.2682703435 0 -0 0
69.3006192744 43.2682703435 0 -0 0
70.2515712678 43.2682703435 0 -0 0
71.2025232613 43.2682703435 0 -0 0
72.1534752548 43.2682703435 9.7679715644 0.6366658543 1
73.1044272482 43.2682703435 0 -0 0
74.0553792417 43.2682703435 0 -0 0
75.0063312352 43.2682703435 10.0567965591 0.4609164894 1
75.9572832286 43.2682703435 9.4410009856 1.0704585103 1
76.9082352221 43.2682703435 10.0343601727 0.6033987246 1
77.8591872156 43.2682703435 10.5230006936 0.4860758967 1
78.810139209 43.2682703435 9.6029520038 0.6214481515 1
79.7610912025 43.2682703435 9.953633905 0.8923184466 1
80.712043196 43.2682703435 0 -0 0
81.6629951894 43.2682703435 0 -0 0
82.6139471829 43.2682703435 10.8121781981 -0.9854741742 1
83.5648991764 43.2682703435 0 -0 0
84.5158511698 43.2682703435 0 -0 0
85.4668031633 43.2682703435 0 -0 0
86.4177551568 43.2682703435 0 -0 0
87.3687071502 43.2682703435 0 -0 0
88.3196591437 43.2682703435 0 -0 0
89.2706111372 43.2682703435 10.0264915977 0.5289260095 1
90.2215631306 43.2682703435 0 -0 0
91.1725151241 43.2682703435 10.5579690319 0.0573216443 1
92.1234671175 43.2682703435 0 -0 0
93.074419111 43.2682703435 0 -0 0
94.0253711045 43.2682703435 0 -0 0
94.9763230979 43.2682703435 0 -0 0
95.9272750914 43.2682703435 0 -0 0
96.8782270849 43.2682703435 0 -0 0
97.8291790783 43.2682703435 0 -0 0
98.7801310718 43.2682703435 0 -0 0
99.7310830653 43.2682703435 0 -0 0
100.6820350587 43.2682703435 0 -0 0
101.6329870522 43.2682703435 9.9116091617 0.3157026925 1
102.5839390457 43.2682703435 0 -0 0
103.5348910391 43.2682703435 4.7187938491 -0.4570132601 1
104.4858430326 43.2682703435 0 -0 0
105.4367950261 43.2682703435 -4.5689919913 1.041267759 1
106.3877470195 43.2682703435 10.2997021222 0.0996103816 1
107.338699013 43.2682703435 0 -0 0
108.2896510065 43.2682703435 0 -0 0
109.2406029999 43.2682703435 0 -0 0
110.1915549934 43.2682703435 0 -0 0
111.1425069869 43.2682703435 0 -0 0
112.0934589803 43.2682703435 0 -0 0
113.0444109738 43.2682703435 0 -0 0
113.9953629673 43.2682703435 0 -0 0
114.9463149607 43.2682703435 0 -0 0
115.8972669542 43.2682703435 10.6012361 0.1986322118 1
116.8482189476 43.2682703435 0 -0 0
117.7991709411 43.2682703435 0 -0 0
118.7501229346 43.2682703435 0 -0 0
119.701074928 43.2682703435 0 -0 0
120.6520269215 43.2682703435 3.8627155708 0.0989814547 1
121.602978915 43.2682703435 5.0904399818 0.297803121 1
122.5539309084 43.2682703435 4.1902343254 -0.2297345905 1
123.5048829019 43.2682703435 5.2748724207 0.8384698767 1
124.4558348954 43.2682703435 5.2127251209 0.3802476793 1
125.4067868888 43.2682703435 10.5836214868 -1.2948798328 1
126.3577388823 43.2682703435 9.5715103152 -0.3750702905 1
127.3086908758 43.2682703435 0 -0 0
128.2596428692 43.2682703435 10.7102097286 -0.3580457816 1
129.2105948627 43.2682703435 10.0608465381 -0.4235986043 1
130.1615468562 43.2682703435 10.7150392664 -0.5486805273 1
131.1124988496 43.2682703435 10.3392328984 -0.6798723591 1
132.0634508431 43.2682703435 -8.6274474864 0.1598111137 1
133.0144028366 43.2682703435 -1.2975787835 -1.5782083166 1
133.96535483 43.2682703435 -3.3320472007 2.0837894896 1
134.9163068235 43.2682703435 0 -0 0
135.867258817 43.2682703435 -3.6763280231 4.4185922647 1
136.8182108104 43.2682703435 4.8621348413 0.0127485822 1
137.7691628039 43.2682703435 6.1724552188 -3.2275785525 1
138.7201147974 43.2682703435 10.2177568233 -0.9241413737 1
139.6710667908 43.2682703435 9.7207212923 -0.948687383 1
140.6220187843 43.2682703435 0 -0 0
141.5729707778 43.2682703435 0 -0 0
142.5239227712 43.2682703435 0 -0 0
143.4748747647 43.2682703435 0 -0 0
144.4258267581 43.2682703435 10.2812846566 -0.6437339061 1
145.3767787516 43.2682703435 9.9377600994 -0.1248621868 1
146.3277307451 43.2682703435 10.3382126392 -0.4746107913 1
147.2786827385 43.2682703435 10.5039962295 -0.5076170328 1
148.229634732 43.2682703435 10.1944275158 -0.9334300811 1
149.1805867255 43.2682703435 10.2051565437 -0.7727563282 1
150.1315387189 43.2682703435 0 -0 0
151.0824907124 43.2682703435 0 -0 0
152.0334427059 43.2682703435 10.3445966359 -1.0469413012 1
152.9843946993 43.2682703435 10.1548485995 -2.0843058308 1
153.9353466928 43.2682703435 10.174376393 -1.6380782797 1
154.8862986863 43.2682703435 0 -0 0
155.8372506797 43.2682703435 10.5367656528 -0.6384035561 1
156.7882026732 43.2682703435 10.1379157121 -0.3048773845 1
157.7391546667 43.2682703435 10.3012783219 -0.6624891288 1
158.6901066601 43.2682703435 0 -0 0
159.6410586536 43.2682703435 9.9884842224 -0.4177674421 1
160.5920106471 43.2682703435 10.6728933964 -0.0848507861 1
161.5429626405 43.2682703435 10.5472912499 -0.8737239496 1
162.493914634 43.2682703435 0 -0 0
163.4448666275 43.2682703435 0 -0 0
164.3958186209 43.2682703435 0 -0 0
165.3467706144 43.2682703435 0 -0 0
166.2977226079 43.2682703435 10.455281567 -0.585360168 1
167.2486746013 43.2682703435 10.6301636338 -0.1178678979 1
168.1996265948 43.2682703435 0 -0 0
-22.9417240918 42.3173183501 0 -0 0
-21.9907720983 42.3173183501 9.5443329066 0.6988310125 1
-21.0398201048 42.3173183501 9.1492099403 0.1699640134 1
-20.0888681114 42.3173183501 0 -0 0
-19.1379161179 42.3173183501 9.3424256159 0.744918158 1
-18.1869641244 42.3173183501 9.1309182601 -0.0254016606 1
-17.236012131 42.3173183501 9.2843888584 -0.2829379279 1
-16.2850601375 42.3173183501 9.1568083096 -0.2935535936 1
-15.334108144 42.3173183501 0 -0 0
-14.3831561506 42.3173183501 9.0269620709 0.3750229269 1
-13.4322041571 42.3173183501 9.3184549582 -0.4980332732 1
-12.4812521636 42.3173183501 9.4456333044 0.097372644 1
-11.5303001702 42.3173183501 8.9355440451 0.0541490572 1
-10.5793481767 42.3173183501 9.3290768356 0.2309761389 1
-9.6283961833 42.3173183501 9.0928223691 0.4988904773 1
-8.6774441898 42.3173183501 9.0610747579 0.0933560525 1
-7.7264921963 42.3173183501 9.1621860232 0.3963924669 1
-6.7755402029 42.3173183501 9.3652471231 0.545296745 1
-5.8245882094 42.3173183501 0 -0 0
-4.8736362159 42.3173183501 0 -0 0
-3.9226842225 42.3173183501 0 -0 0
-2.971732229 42.3173183501 0 -0 0
-2.0207802355 42.3173183501 0 -0 0
-1.0698282421 42.3173183501 0 -0 0
-0.1188762486 42.3173183501 0 -0 0
0.8320757449 42.3173183501 0 -0 0
1.7830277383 42.3173183501 0 -0 0
2.7339797318 42.3173183501 0 -0 0
3.6849317253 42.3173183501 0 -0 0
4.6358837187 42.3173183501 0 -0 0
5.5868357122 42.3173183501 0 -0 0
6.5377877057 42.3173183501 0 -0 0
7.4887396991 42.3173183501 0 -0 0
8.4396916926 42.3173183501 0 -0 0
9.3906436861 42.3173183501 0 -0 0
10.3415956795 42.3173183501 0 -0 0
11.292547673 42.3173183501 0 -0 0
12.2434996665 42.3173183501 0 -0 0
13.1944516599 42.3173183501 0 -0 0
14.1454036534 42.3173183501 0 -0 0
15.0963556468 42.3173183501 0 -0 0
16.0473076403 42.3173183501 8.9401499644 0.5613134179 1
16.9982596338 42.3173183501 9.2919872277 0.6311289678 1
17.9492116272 42.3173183501 9.0692973954 0.602871513 1
18.9001636207 42.3173183501 9.0605250292 0.7445679777 1
19.8511156142 42.3173183501 9.2252821486 0.9230923856 1
20.8020676076 42.3173183501 9.4210011087 1.2571069462 1
21.7530196011 42.3173183501 8.9005927888 0.7326929052 1
22.7039715946 42.3173183501 10.03767718 0.6610627846 1
23.654923588 42.3173183501 9.8989700594 0.6231392662 1
24.6058755815 42.3173183501 0 -0 0
25.556827575 42.3173183501 9.9593812102 0.9559247016 1
26.5077795684 42.3173183501 9.7112159544 0.798988017 1
27.4587315619 42.3173183501 9.1441381492 1.5434876668 1
28.4096835554 42.3173183501 0 -0 0
29.3606355488 42.3173183501 0 -0 0
30.3115875423 42.3173183501 0 -0 0
31.2625395358 42.3173183501 9.1204345914 0.966529497 1
32.2134915292 42.3173183501 10.1741248222 1.1554389641 1
33.1644435227 42.3173183501 9.5437754133 0.9611284898 1
34.1153955162 42.3173183501 9.1412714847 0.6083447303 1
35.0663475096 42.3173183501 9.4469532745 1.0702007279 1
36.0172995031 42.3173183501 9.2836698629 0.5989884714 1
36.9682514966 42.3173183501 9.3474803251 0.5331871837 1
37.91920349 42.3173183501 9.3474943012 1.2040193002 1
38.8701554835 42.3173183501 9.587247465 0.4803969193 1
39.8211074769 42.3173183501 10.3984157006 0.3130301412 1
40.7720594704 42.3173183501 10.0760789935 0.5167318148 1
41.7230114639 42.3173183501 9.8546609913 1.6858495518 1
42.6739634573 42.3173183501 0 -0 0
43.6249154508 42.3173183501 9.9540811419 0.4422078539 1
44.5758674443 42.3173183501 9.5639507686 0.518158159 1
45.5268194377 42.3173183501 0 -0 0
46.4777714312 42.3173183501 10.0482089887 1.0693784641 1
47.4287234247 42.3173183501 0 -0 0
48.3796754181 42.3173183501 0 -0 0
49.3306274116 42.3173183501 9.9899299779 0.655611308 1
50.2815794051 42.3173183501 10.7292902852 0.7432115143 1
51.2325313985 42.3173183501 9.4607648208 0.8958598488 1
52.183483392 42.3173183501 10.2740155034 1.4387550246 1
53.1344353855 42.3173183501 9.9567366112 0.6123962622 1
54.0853873789 42.3173183501 10.0273907303 0.4425448345 1
55.0363393724 42.3173183501 0 -0 0
55.9872913659 42.3173183501 10.0228593505 1.1994056164 1
56.9382433593 42.3173183501 9.1529198329 1.1007549307 1
57.8891953528 42.3173183501 10.6783658373 0.8968273093 1
58.8401473463 42.3173183501 0 -0 0
59.7910993397 42.3173183501 10.3594020421 0.9566553439 1
60.7420513332 42.3173183501 10.4147910948 0.2158205524 1
61.6930033267 42.3173183501 9.9365410682 0.5519307596 1
62.6439553201 42.3173183501 10.1847513583 0.6567907401 1
63.5949073136 42.3173183501 10.6220388294 -0.1472403393 1
64.5458593071 42.3173183501 9.4696583137 0.2423239998 1
65.4968113005 42.3173183501 10.2029514171 0.7675463284 1
66.447763294 42.3173183501 9.2704592912 1.1534753144 1
67.3987152874 42.3173183501 10.192011194 0.8665813583 1
68.3496672809 42.3173183501 10.3485379114 0.8084265799 1
69.3006192744 42.3173183501 0 -0 0
70.2515712678 42.3173183501 0 -0 0
71.2025232613 42.3173183501 0 -0 0
72.1534752548 42.3173183501 10.4939675623 1.6903436619 1
73.1044272482 42.3173183501 10.3468157386 0.5490703067 1
74.0553792417 42.3173183501 10.2320187124 1.6643814022 1
75.0063312352 42.3173183501 9.8890625188 0.8029673388 1
75.9572832286 42.3173183501 8.975444413 1.2061980274 1
76.9082352221 42.3173183501 0 -0 0
77.8591872156 42.3173183501 10.1086263512 0.802988303 1
78.810139209 42.3173183501 10.4253244565 0.5346407038 1
79.7610912025 42.3173183501 10.622177038 0.8238205375 1
80.712043196 42.3173183501 10.3471216611 1.4423414611 1
81.6629951894 42.3173183501 0 -0 0
82.6139471829 42.3173183501 0 -0 0
83.5648991764 42.3173183501 10.0843963582 -1.7025720205 1
84.5158511698 42.3173183501 0 -0 0
85.4668031633 42.3173183501 0 -0 0
86.4177551568 42.3173183501 0 -0 0
87.3687071502 42.3173183501 0 -0 0
88.3196591437 42.3173183501 0 -0 0
89.2706111372 42.3173183501 0 -0 0
90.2215631306 42.3173183501 10.6867624003 0.0348285767 1
91.1725151241 42.3173183501 10.6261121019 0.232254957 1
92.1234671175 42.3173183501 0 -0 0
93.074419111 42.3173183501 0 -0 0
94.0253711045 42.3173183501 0 -0 0
94.9763230979 42.3173183501 0 -0 0
95.9272750914 42.3173183501 0 -0 0
96.8782270849 42.3173183501 0 -0 0
97.8291790783 42.3173183501 0 -0 0
98.7801310718 42.3173183501 0 -0 0
99.7310830653 42.3173183501 0 -0 0
100.6820350587 42.3173183501 0 -0 0
101.6329870522 42.3173183501 10.0647210387 0.0126887953 1
102.5839390457 42.3173183501 0 -0 0
103.5348910391 42.3173183501 0 -0 0
104.4858430326 42.3173183501 -0.9525269432 1.6433558308 1
105.4367950261 42.3173183501 -1.3157726307 2.1843665552 1
106.3877470195 42.3173183501 9.4980547536 -0.5384818169 1
107.338699013 42.3173183501 10.5376508092 -0.3039479702 1
108.2896510065 42.3173183501 10.4826111604 -0.2275372284 1
109.2406029999 42.3173183501 10.2996244769 -0.4586725402 1
110.1915549934 42.3173183501 7.9723789191 0.9914233573 1
111.1425069869 42.3173183501 0 -0 0
112.0934589803 42.3173183501 0 -0 0
113.0444109738 42.3173183501 10.5685350046 0.6750847497 1
113.9953629673 42.3173183501 10.5095727151 -0.2464850115 1
114.9463149607 42.3173183501 0 -0 0
115.8972669542 42.3173183501 10.9661379618 -0.6346905578 1
116.8482189476 42.3173183501 0 -0 0
117.7991709411 42.3173183501 10.7254297607 -0.3719287616 1
118.7501229346 42.3173183501 0 -0 0
119.701074928 42.3173183501 0 -0 0
120.6520269215 42.3173183501 0 -0 0
121.602978915 42.3173183501 0 -0 0
122.5539309084 42.3173183501 3.2045675908 0.4340884846 1
123.5048829019 42.3173183501 4.097800699 0.3564307593 1
124.4558348954 42.3173183501 5.0178711295 0.0714631831 1
125.4067868888 42.3173183501 -0.8044526934 0.0261897604 1
126.3577388823 42.3173183501 10.1956993459 -0.3775425169 1
127.3086908758 42.3173183501 0 -0 0
128.2596428692 42.3173183501 10.3666028674 -0.4157098416 1
129.2105948627 42.3173183501 0 -0 0
130.1615468562 42.3173183501 0 -0 0
131.1124988496 42.3173183501 0 -0 0
132.0634508431 42.3173183501 -7.8462713017 -2.0532337338 1
133.0144028366 42.3173183501 -0.9377976294 -2.2220346206 1
133.96535483 42.3173183501 -1.5791058963 3.8381571382 1
134.9163068235 42.3173183501 -1.8525578977 3.4986918774 1
135.867258817 42.3173183501 -1.9369389297 3.8458991513 1
136.8182108104 42.3173183501 0 -0 0
137.7691628039 42.3173183501 3.7176089244 0.9846278404 1
138.7201147974 42.3173183501 10.1643834426 -1.2112605011 1
139.6710667908 42.3173183501 9.9102472631 -0.9219742933 1
140.6220187843 42.3173183501 0 -0 0
141.5729707778 42.3173183501 0 -0 0
142.5239227712 42.3173183501 0 -0 0
143.4748747647 42.3173183501 10.4236348947 -0.2713905186 1
144.4258267581 42.3173183501 10.1275298765 -0.461335774 1
145.3767787516 42.3173183501 10.4454827298 -0.7950149069 1
146.3277307451 42.3173183501 10.2495696565 -0.3837223065 1
147.2786827385 42.3173183501 10.2650241774 -0.3150559072 1
148.229634732 42.3173183501 10.5572779887 -0.4222196238 1
149.1805867255 42.3173183501 0 -0 0
150.1315387189 42.3173183501 10.7171838297 -0.5402754233 1
151.0824907124 42.3173183501 0 -0 0
152.0334427059 42.3173183501 9.6652732291 -1.3873351998 1
152.9843946993 42.3173183501 10.2738058611 -1.2453071896 1
153.9353466928 42.3173183501 0 -0 0
154.8862986863 42.3173183501 0 -0 0
155.8372506797 42.3173183501 10.3175341423 -0.1029227302 1
156.7882026732 42.3173183501 10.2654683085 -0.5278855625 1
157.7391546667 42.3173183501 0 -0 0
158.6901066601 42.3173183501 0 -0 0
159.6410586536 42.3173183501 0 -0 0
160.5920106471 42.3173183501 10.2219387993 -0.6007362672 1
161.5429626405 42.3173183501 10.382294983 -0.5779101013 1
162.493914634 42.3173183501 0 -0 0
163.4448666275 42.3173183501 0 -0 0
164.3958186209 42.3173183501 0 -0 0
165.3467706144 42.3173183501 0 -0 0
166.2977226079 42.3173183501 0 -0 0
167.2486746013 42.3173183501 10.5031405783 -0.6687201643 1
168.1996265948 42.3173183501 0 -0 0
-22.9417240918 41.3663663566 0 -0 0
-21.9907720983 41.3663663566 8.8566160426 0.390548105 1
-21.0398201048 41.3663663566 9.1883121145 -0.3187976343 1
-20.0888681114 41.3663663566 9.7454715088 -0.3324119615 1
-19.1379161179 41.3663663566 9.2330886073 -0.332602969 1
-18.1869641244 41.3663663566 9.2680740275 -0.0183902898 1
-17.236012131 41.3663663566 9.0789424949 0.4133276838 1
-16.2850601375 41.3663663566 9.0740291001 0.0348052831 1
-15.334108144 41.3663663566 10.0251048526 0.3050870268 1
-14.3831561506 41.3663663566 9.2975807952 0.5176154184 1
-13.4322041571 41.3663663566 9.2640271544 -0.2722368524 1
-12.4812521636 41.3663663566 0 -0 0
-11.5303001702 41.3663663566 9.1052580406 0.0822155046 1
-10.5793481767 41.3663663566 9.5818806218 0.5489220042 1
-9.6283961833 41.3663663566 8.9111168331 0.4062316796 1
-8.6774441898 41.3663663566 9.3556284231 1.0030887875 1
-7.7264921963 41.3663663566 9.0673236518 0.6024848394 1
-6.7755402029 41.3663663566 9.632120238 -0.3549058056 1
-5.8245882094 41.3663663566 0 -0 0
-4.8736362159 41.3663663566 0 -0 0
-3.9226842225 41.3663663566 0 -0 0
-2.971732229 41.3663663566 0 -0 0
-2.0207802355 41.3663663566 0 -0 0
-1.0698282421 41.3663663566 0 -0 0
-0.1188762486 41.3663663566 0 -0 0
0.8320757449 41.3663663566 0 -0 0
1.7830277383 41.3663663566 0 -0 0
2.7339797318 41.3663663566 0 -0 0
3.6849317253 41.3663663566 0 -0 0
4.6358837187 41.3663663566 0 -0 0
5.5868357122 41.3663663566 0 -0 0
6.5377877057 41.3663663566 0 -0 0
7.4887396991 41.3663663566 0 -0 0
8.4396916926 41.3663663566 0 -0 0
9.3906436861 41.3663663566 0 -0 0
10.3415956795 41.3663663566 0 -0 0
11.292547673 41.3663663566 0 -0 0
12.2434996665 41.3663663566 0 -0 0
13.1944516599 41.3663663566 0 -0 0
14.1454036534 41.3663663566 0 -0 0
15.0963556468 41.3663663566 0 -0 0
16.0473076403 41.3663663566 8.8088517586 0.7418402982 1
16.9982596338 41.3663663566 0 -0 0
17.9492116272 41.3663663566 9.4222139283 0.610383696 1
18.9001636207 41.3663663566 9.6075144418 0.8398395398 1
19.8511156142 41.3663663566 9.5269900519 0.7298774865 1
20.8020676076 41.3663663566 9.4600411666 0.8935871708 1
21.7530196011 41.3663663566 10.0803355089 0.8154907495 1
22.7039715946 41.3663663566 9.6188289152 0.8939140576 1
23.654923588 41.3663663566 9.1532459432 0.8349245922 1
24.6058755815 41.3663663566 8.8357698319 1.0993464449 1
25.556827575 41.3663663566 9.4693850023 0.7777528033 1
26.5077795684 41.3663663566 9.9123017578 0.69977285 1
27.4587315619 41.3663663566 0 -0 0
28.4096835554 41.3663663566 0 -0 0
29.3606355488 41.3663663566 10.0100075001 0.9480615619 1
30.3115875423 41.3663663566 0 -0 0
31.2625395358 41.3663663566 9.6254085781 1.1121493788 1
32.2134915292 41.3663663566 9.520708547 0.7767465202 1
33.1644435227 41.3663663566 9.4357257638 0.9517341847 1
34.1153955162 41.3663663566 9.5384132287 0.8054527649 1
35.0663475096 41.3663663566 10.3813182051 0.7921412543 1
36.0172995031 41.3663663566 9.5790822851 0.8820459731 1
36.9682514966 41.3663663566 9.2027525878 0.4711563519 1
37.91920349 41.3663663566 10.0160374343 0.9770193773 1
38.8701554835 41.3663663566 9.3323565731 0.7669399186 1
39.8211074769 41.3663663566 9.4809184354 1.0351632853 1
40.7720594704 41.3663663566 9.4369711945 0.8108654189 1
41.7230114639 41.3663663566 9.3750288783 0.6975964522 1
42.6739634573 41.3663663566 0 -0 0
43.6249154508 41.3663663566 10.102083958 0.5996205042 1
44.5758674443 41.3663663566 9.5518613951 0.5162123678 1
45.5268194377 41.3663663566 10.3754342441 0.4683300629 1
46.4777714312 41.3663663566 10.5218593077 0.7061514116 1
47.4287234247 41.3663663566 10.7244809351 0.9013959589 1
48.3796754181 41.3663663566 9.9522440541 0.9633134286 1
49.3306274116 41.3663663566 9.9189606189 0.6444785246 1
50.2815794051 41.3663663566 0 -0 0
51.2325313985 41.3663663566 9.1070625175 0.8096960806 1
52.183483392 41.3663663566 10.1581252313 1.195767934 1
53.1344353855 41.3663663566 9.9845181003 0.7812119016 1
54.0853873789 41.3663663566 9.7407491215 0.5719570359 1