TITLE = "B00001"
VARIABLES = "x", "y", "Vx", "Vy", "isValid"
ZONE T="Frame 0", I=202, J=155, F=POINT
-22.9417240918 44.219222337 0 -0 0
-21.9907720983 44.219222337 0 -0 0
-21.0398201048 44.219222337 0 -0 0
-20.0888681114 44.219222337 0 -0 0
-19.1379161179 44.219222337 0 -0 0
-18.1869641244 44.219222337 0 -0 0
-17.236012131 44.219222337 0 -0 0
-16.2850601375 44.219222337 0 -0 0
-15.334108144 44.219222337 0 -0 0
-14.3831561506 44.219222337 0 -0 0
-13.4322041571 44.219222337 0 -0 0
-12.4812521636 44.219222337 0 -0 0
-11.5303001702 44.219222337 0 -0 0
-10.5793481767 44.219222337 0 -0 0
-9.6283961833 44.219222337 0 -0 0
-8.6774441898 44.219222337 0 -0 0
-7.7264921963 44.219222337 0 -0 0
-6.7755402029 44.219222337 0 -0 0
-5.8245882094 44.219222337 0 -0 0
-4.8736362159 44.219222337 0 -0 0
-3.9226842225 44.219222337 0 -0 0
-2.971732229 44.219222337 0 -0 0
-2.0207802355 44.219222337 0 -0 0
-1.0698282421 44.219222337 0 -0 0
-0.1188762486 44.219222337 0 -0 0
0.8320757449 44.219222337 0 -0 0
1.7830277383 44.219222337 0 -0 0
2.7339797318 44.219222337 0 -0 0
3.6849317253 44.219222337 0 -0 0
4.6358837187 44.219222337 0 -0 0
5.5868357122 44.219222337 0 -0 0
6.5377877057 44.219222337 0 -0 0
7.4887396991 44.219222337 0 -0 0
8.4396916926 44.219222337 0 -0 0
9.3906436861 44.219222337 0 -0 0
10.3415956795 44.219222337 0 -0 0
11.292547673 44.219222337 0 -0 0
12.2434996665 44.219222337 0 -0 0
13.1944516599 44.219222337 0 -0 0
14.1454036534 44.219222337 0 -0 0
15.0963556468 44.219222337 0 -0 0
16.0473076403 44.219222337 0 -0 0
16.9982596338 44.219222337 0 -0 0
17.9492116272 44.219222337 0 -0 0
18.9001636207 44.219222337 0 -0 0
19.8511156142 44.219222337 0 -0 0
20.8020676076 44.219222337 0 -0 0
21.7530196011 44.219222337 0 -0 0
22.7039715946 44.219222337 0 -0 0
23.654923588 44.219222337 0 -0 0
24.6058755815 44.219222337 0 -0 0
25.556827575 44.219222337 0 -0 0
26.5077795684 44.219222337 0 -0 0
27.4587315619 44.219222337 0 -0 0
28.4096835554 44.219222337 0 -0 0
29.3606355488 44.219222337 0 -0 0
30.3115875423 44.219222337 0 -0 0
31.2625395358 44.219222337 0 -0 0
32.2134915292 44.219222337 0 -0 0
33.1644435227 44.219222337 0 -0 0
34.1153955162 44.219222337 0 -0 0
35.0663475096 44.219222337 0 -0 0
36.0172995031 44.219222337 0 -0 0
36.9682514966 44.219222337 0 -0 0
37.91920349 44.219222337 0 -0 0
38.8701554835 44.219222337 0 -0 0
39.8211074769 44.219222337 0 -0 0
40.7720594704 44.219222337 0 -0 0
41.7230114639 44.219222337 0 -0 0
42.6739634573 44.219222337 0 -0 0
43.6249154508 44.219222337 0 -0 0
44.5758674443 44.219222337 0 -0 0
45.5268194377 44.219222337 0 -0 0
46.4777714312 44.219222337 0 -0 0
47.4287234247 44.219222337 0 -0 0
48.3796754181 44.219222337 0 -0 0
49.3306274116 44.219222337 0 -0 0
50.2815794051 44.219222337 0 -0 0
51.2325313985 44.219222337 0 -0 0
52.183483392 44.219222337 0 -0 0
53.1344353855 44.219222337 0 -0 0
54.0853873789 44.219222337 0 -0 0
55.0363393724 44.219222337 0 -0 0
55.9872913659 44.219222337 0 -0 0
56.9382433593 44.219222337 0 -0 0
57.8891953528 44.219222337 0 -0 0
58.8401473463 44.219222337 0 -0 0
59.7910993397 44.219222337 0 -0 0
60.7420513332 44.219222337 0 -0 0
61.6930033267 44.219222337 0 -0 0
62.6439553201 44.219222337 0 -0 0
63.5949073136 44.219222337 0 -0 0
64.5458593071 44.219222337 0 -0 0
65.4968113005 44.219222337 0 -0 0
66.447763294 44.219222337 0 -0 0
67.3987152874 44.219222337 0 -0 0
68.3496672809 44.219222337 0 -0 0
69.3006192744 44.219222337 0 -0 0
70.2515712678 44.219222337 0 -0 0
71.2025232613 44.219222337 0 -0 0
72.1534752548 44.219222337 0 -0 0
73.1044272482 44.219222337 0 -0 0
74.0553792417 44.219222337 0 -0 0
75.0063312352 44.219222337 0 -0 0
75.9572832286 44.219222337 0 -0 0
76.9082352221 44.219222337 0 -0 0
77.8591872156 44.219222337 0 -0 0
78.810139209 44.219222337 0 -0 0
79.7610912025 44.219222337 0 -0 0
80.712043196 44.219222337 0 -0 0
81.6629951894 44.219222337 0 -0 0
82.6139471829 44.219222337 0 -0 0
83.5648991764 44.219222337 0 -0 0
84.5158511698 44.219222337 0 -0 0
85.4668031633 44.219222337 0 -0 0
86.4177551568 44.219222337 0 -0 0
87.3687071502 44.219222337 0 -0 0
88.3196591437 44.219222337 0 -0 0
89.2706111372 44.219222337 0 -0 0
90.2215631306 44.219222337 0 -0 0
91.1725151241 44.219222337 0 -0 0
92.1234671175 44.219222337 0 -0 0
93.074419111 44.219222337 0 -0 0
94.0253711045 44.219222337 0 -0 0
94.9763230979 44.219222337 0 -0 0
95.9272750914 44.219222337 0 -0 0
96.8782270849 44.219222337 0 -0 0
97.8291790783 44.219222337 0 -0 0
98.7801310718 44.219222337 0 -0 0
99.7310830653 44.219222337 0 -0 0
100.6820350587 44.219222337 0 -0 0
101.6329870522 44.219222337 0 -0 0
102.5839390457 44.219222337 0 -0 0
103.5348910391 44.219222337 0 -0 0
104.4858430326 44.219222337 0 -0 0
105.4367950261 44.219222337 0 -0 0
106.3877470195 44.219222337 0 -0 0
107.338699013 44.219222337 0 -0 0
108.2896510065 44.219222337 0 -0 0
109.2406029999 44.219222337 0 -0 0
110.1915549934 44.219222337 0 -0 0
111.1425069869 44.219222337 0 -0 0
112.0934589803 44.219222337 0 -0 0
113.0444109738 44.219222337 0 -0 0
113.9953629673 44.219222337 0 -0 0
114.9463149607 44.219222337 0 -0 0
115.8972669542 44.219222337 0 -0 0
116.8482189476 44.219222337 0 -0 0
117.7991709411 44.219222337 0 -0 0
118.7501229346 44.219222337 0 -0 0
119.701074928 44.219222337 0 -0 0
120.6520269215 44.219222337 0 -0 0
121.602978915 44.219222337 0 -0 0
122.5539309084 44.219222337 0 -0 0
123.5048829019 44.219222337 0 -0 0
124.4558348954 44.219222337 0 -0 0
125.4067868888 44.219222337 0 -0 0
126.3577388823 44.219222337 0 -0 0
127.3086908758 44.219222337 0 -0 0
128.2596428692 44.219222337 0 -0 0
129.2105948627 44.219222337 0 -0 0
130.1615468562 44.219222337 0 -0 0
131.1124988496 44.219222337 0 -0 0
132.0634508431 44.219222337 0 -0 0
133.0144028366 44.219222337 0 -0 0
133.96535483 44.219222337 0 -0 0
134.9163068235 44.219222337 0 -0 0
135.867258817 44.219222337 0 -0 0
136.8182108104 44.219222337 0 -0 0
137.7691628039 44.219222337 0 -0 0
138.7201147974 44.219222337 0 -0 0
139.6710667908 44.219222337 0 -0 0
140.6220187843 44.219222337 0 -0 0
141.5729707778 44.219222337 0 -0 0
142.5239227712 44.219222337 0 -0 0
143.4748747647 44.219222337 0 -0 0
144.4258267581 44.219222337 0 -0 0
145.3767787516 44.219222337 0 -0 0
146.3277307451 44.219222337 0 -0 0
147.2786827385 44.219222337 0 -0 0
148.229634732 44.219222337 0 -0 0
149.1805867255 44.219222337 0 -0 0
150.1315387189 44.219222337 0 -0 0
151.0824907124 44.219222337 0 -0 0
152.0334427059 44.219222337 0 -0 0
152.9843946993 44.219222337 0 -0 0
153.9353466928 44.219222337 0 -0 0
154.8862986863 44.219222337 0 -0 0
155.8372506797 44.219222337 0 -0 0
156.7882026732 44.219222337 0 -0 0
157.7391546667 44.219222337 0 -0 0
158.6901066601 44.219222337 0 -0 0
159.6410586536 44.219222337 0 -0 0
160.5920106471 44.219222337 0 -0 0
161.5429626405 44.219222337 0 -0 0
162.493914634 44.219222337 0 -0 0
163.4448666275 44.219222337 0 -0 0
164.3958186209 44.219222337 0 -0 0
165.3467706144 44.219222337 0 -0 0
166.2977226079 44.219222337 0 -0 0
167.2486746013 44.219222337 0 -0 0
168.1996265948 44.219222337 0 -0 0
-22.9417240918 43.2682703435 0 -0 0
-21.9907720983 43.2682703435 9.4021457236 0.2124872395 1
-21.0398201048 43.2682703435 8.8922738712 0.0342213904 1
-20.0888681114 43.2682703435 9.6034396163 0.0551708694 1
-19.1379161179 43.2682703435 9.3243202844 0.7189085347 1
-18.1869641244 43.2682703435 9.3183322787 -0.1353807958 1
-17.236012131 43.2682703435 9.4540562667 0.479450423 1
-16.2850601375 43.2682703435 9.0990495223 -0.3075328538 1
-15.334108144 43.2682703435 9.6784185788 -0.151723579 1
-14.3831561506 43.2682703435 9.5575031027 0.4473852426 1
-13.4322041571 43.2682703435 9.0110261491 0.1148110024 1
-12.4812521636 43.2682703435 9.1611191768 0.6711885085 1
-11.5303001702 43.2682703435 10.0973600179 0.3161934108 1
-10.5793481767 43.2682703435 0 -0 0
-9.6283961833 43.2682703435 0 -0 0
-8.6774441898 43.2682703435 9.0780123041 0.2246495997 1
-7.7264921963 43.2682703435 8.929761023 0.2316446649 1
-6.7755402029 43.2682703435 9.8024289966 -0.2994134846 1
-5.8245882094 43.2682703435 0 -0 0
-4.8736362159 43.2682703435 0 -0 0
-3.9226842225 43.2682703435 0 -0 0
-2.971732229 43.2682703435 0 -0 0
-2.0207802355 43.2682703435 0 -0 0
-1.0698282421 43.2682703435 0 -0 0
-0.1188762486 43.2682703435 0 -0 0
0.8320757449 43.2682703435 0 -0 0
1.7830277383 43.2682703435 0 -0 0
2.7339797318 43.2682703435 0 -0 0
3.6849317253 43.2682703435 0 -0 0
4.6358837187 43.2682703435 0 -0 0
5.5868357122 43.2682703435 0 -0 0
6.5377877057 43.2682703435 0 -0 0
7.4887396991 43.2682703435 0 -0 0
8.4396916926 43.2682703435 0 -0 0
9.3906436861 43.2682703435 0 -0 0
10.3415956795 43.2682703435 0 -0 0
11.292547673 43.2682703435 0 -0 0
12.2434996665 43.2682703435 0 -0 0
13.1944516599 43.2682703435 0 -0 0
14.1454036534 43.2682703435 0 -0 0
15.0963556468 43.2682703435 0 -0 0
16.0473076403 43.2682703435 9.1718124878 0.4377743071 1
16.9982596338 43.2682703435 9.4113653267 0.6731374056 1
17.9492116272 43.2682703435 9.1640091349 0.8861689387 1
18.9001636207 43.2682703435 10.0269357289 0.9114160851 1
19.8511156142 43.2682703435 9.1948094734 0.9330177846 1
20.8020676076 43.2682703435 9.5390638964 0.4026506783 1
21.7530196011 43.2682703435 9.4984026046 1.4616611652 1
22.7039715946 43.2682703435 9.9991154171 0.7628907161 1
23.654923588 43.2682703435 9.0267570873 0.9666583882 1
24.6058755815 43.2682703435 9.5831182879 0.3268261585 1
25.556827575 43.2682703435 10.0961720447 0.7198713364 1
26.5077795684 43.2682703435 0 -0 0
27.4587315619 43.2682703435 9.4482313162 0.7452846438 1
28.4096835554 43.2682703435 9.6539898138 0.900278643 1
29.3606355488 43.2682703435 9.132688573 1.2451480168 1
30.3115875423 43.2682703435 0 -0 0
31.2625395358 43.2682703435 9.9709860771 0.847357158 1
32.2134915292 43.2682703435 10.3557138903 1.4290765377 1
33.1644435227 43.2682703435 9.7042713586 0.836729069 1
34.1153955162 43.2682703435 8.9055232655 0.8225758833 1
35.0663475096 43.2682703435 9.5413451154 0.6378150047 1
36.0172995031 43.2682703435 8.9889391665 0.7796776304 1
36.9682514966 43.2682703435 9.1252625763 1.1596954795 1
37.91920349 43.2682703435 10.4381980476 0.6105630566 1
38.8701554835 43.2682703435 9.8978814722 0.8271484152 1
39.8211074769 43.2682703435 9.204748072 0.5763307958 1
40.7720594704 43.2682703435 9.2674124895 0.537595884 1
41.7230114639 43.2682703435 10.2288383608 0.9418049034 1
42.6739634573 43.2682703435 9.371578321 0.1372054604 1
43.6249154508 43.2682703435 9.6005108356 0.3374666707 1
44.5758674443 43.2682703435 0 -0 0
45.5268194377 43.2682703435 0 -0 0
46.4777714312 43.2682703435 0 -0 0
47.4287234247 43.2682703435 10.5859337639 0.7578577476 1
48.3796754181 43.2682703435 9.1414096933 0.7856594245 1
49.3306274116 43.2682703435 9.1939615867 0.635479434 1
50.2815794051 43.2682703435 0 -0 0
51.2325313985 43.2682703435 9.4961850547 0.5259141483 1
52.183483392 43.2682703435 10.2681905528 0.5482045616 1
53.1344353855 43.2682703435 0 -0 0
54.0853873789 43.2682703435 0 -0 0
55.0363393724 43.2682703435 0 -0 0
55.9872913659 43.2682703435 0 -0 0
56.9382433593 43.2682703435 10.4159806208 1.3171453996 1
57.8891953528 43.2682703435 10.2824757355 0.7033981092 1
58.8401473463 43.2682703435 10.0192767963 0.7900230904 1
59.7910993397 43.2682703435 9.7245507586 0.8897033528 1
60.7420513332 43.2682703435 9.07556803 0.7961151408 1
61.6930033267 43.2682703435 10.2879652584 0.7190265556 1
62.6439553201 43.2682703435 0 -0 0
63.5949073136 43.2682703435 0 -0 0
64.5458593071 43.2682703435 10.1523856906 0.5496371174 1
65.4968113005 43.2682703435 10.0654959388 0.9998393316 1
66.447763294 43.2682703435 10.2096056195 1.4495158871 1
67.3987152874 43.2682703435 0 -0 0
68.3496672809 43.2682703435 0 -0 0
69.3006192744 43.2682703435 10.0827238784 1.9401161755 1
70.2515712678 43.2682703435 10.1187637218 0.2773125258 1
71.2025232613 43.2682703435 9.9178161271 0.3285475548 1
72.1534752548 43.2682703435 10.4271413566 0.7996068501 1
73.1044272482 43.2682703435 9.8288594574 0.8445665858 1
74.0553792417 43.2682703435 10.0295585872 0.6135764708 1
75.0063312352 43.2682703435 10.2876282778 0.9205293142 1
75.9572832286 43.2682703435 9.3217020848 0.725919129 1
76.9082352221 43.2682703435 0 -0 0
77.8591872156 43.2682703435 10.1509709932 0.8095330255 1
78.810139209 43.2682703435 10.7310388574 0.944068264 1
79.7610912025 43.2682703435 9.1258324928 0.8342894536 1
80.712043196 43.2682703435 11.0132779776 0.2676348154 1
81.6629951894 43.2682703435 10.4451705957 -0.3023150895 1
82.6139471829 43.2682703435 10.5787003275 0.1432214184 1
83.5648991764 43.2682703435 0 -0 0
84.5158511698 43.2682703435 0 -0 0
85.4668031633 43.2682703435 0 -0 0
86.4177551568 43.2682703435 0 -0 0
87.3687071502 43.2682703435 0 -0 0
88.3196591437 43.2682703435 0 -0 0
89.2706111372 43.2682703435 0 -0 0
90.2215631306 43.2682703435 0 -0 0
91.1725151241 43.2682703435 0 -0 0
92.1234671175 43.2682703435 0 -0 0
93.074419111 43.2682703435 0 -0 0
94.0253711045 43.2682703435 0 -0 0
94.9763230979 43.2682703435 0 -0 0
95.9272750914 43.2682703435 0 -0 0
96.8782270849 43.2682703435 0 -0 0
97.8291790783 43.2682703435 0 -0 0
98.7801310718 43.2682703435 0 -0 0
99.7310830653 43.2682703435 0 -0 0
100.6820350587 43.2682703435 0 -0 0
101.6329870522 43.2682703435 0 -0 0
102.5839390457 43.2682703435 0 -0 0
103.5348910391 43.2682703435 0 -0 0
104.4858430326 43.2682703435 0 -0 0
105.4367950261 43.2682703435 10.573502751 -0.0492317802 1
106.3877470195 43.2682703435 11.042540939 -0.414224487 1
107.338699013 43.2682703435 10.500732021 -0.2073346973 1
108.2896510065 43.2682703435 10.6546312214 -0.364749677 1
109.2406029999 43.2682703435 0 -0 0
110.1915549934 43.2682703435 0 -0 0
111.1425069869 43.2682703435 10.7442975691 -0.2295684295 1
112.0934589803 43.2682703435 10.422870865 -0.5919871945 1
113.0444109738 43.2682703435 10.3444102872 -0.4426597495 1
113.9953629673 43.2682703435 0.0276696799 -0.5838126971 1
114.9463149607 43.2682703435 10.4846268324 -0.331214671 1
115.8972669542 43.2682703435 2.6965949425 -0.6673186666 1
116.8482189476 43.2682703435 1.8411222976 5.171318046 1
117.7991709411 43.2682703435 1.6181420719 5.4189378436 1
118.7501229346 43.2682703435 2.0006756288 4.7744119554 1
119.701074928 43.2682703435 0.2792458938 -3.1778762417 1
120.6520269215 43.2682703435 10.5406991638 -0.3243842138 1
121.602978915 43.2682703435 0 -0 0
122.5539309084 43.2682703435 10.4997816425 -0.6281970812 1
123.5048829019 43.2682703435 10.487294725 -1.3035869769 1
124.4558348954 43.2682703435 9.6489102582 -0.9042758231 1
125.4067868888 43.2682703435 0 -0 0
126.3577388823 43.2682703435 6.0863869544 -0.9587067328 1
127.3086908758 43.2682703435 0 -0 0
128.2596428692 43.2682703435 -8.3148242066 1.0320357325 1
129.2105948627 43.2682703435 4.3414951384 -1.6739193511 1
130.1615468562 43.2682703435 5.3259350772 -2.256437701 1
131.1124988496 43.2682703435 5.6357382797 -2.686372162 1
132.0634508431 43.2682703435 0.9467089807 -6.3459847045 1
133.0144028366 43.2682703435 -4.9388165652 -6.0753007581 1
133.96535483 43.2682703435 2.6624682793 -5.8322119521 1
134.9163068235 43.2682703435 -7.6211783473 -4.5964621227 1
135.867258817 43.2682703435 -3.0130251715 7.8061838087 1
136.8182108104 43.2682703435 3.4832955905 -1.5095380349 1
137.7691628039 43.2682703435 0 -0 0
138.7201147974 43.2682703435 10.6312863848 -0.3484395048 1
139.6710667908 43.2682703435 10.6368737408 -0.5608351229 1
140.6220187843 43.2682703435 10.1316388658 -0.9112398303 1
141.5729707778 43.2682703435 0 -0 0
142.5239227712 43.2682703435 9.5275475452 -0.2981765949 1
143.4748747647 43.2682703435 9.7587752548 -1.2191779926 1
144.4258267581 43.2682703435 0 -0 0
145.3767787516 43.2682703435 10.3021463963 -0.4380111253 1
146.3277307451 43.2682703435 0 -0 0
147.2786827385 43.2682703435 10.3618292343 -1.6184052895 1
148.229634732 43.2682703435 0 -0 0
149.1805867255 43.2682703435 9.8311950281 -0.4094229015 1
150.1315387189 43.2682703435 10.3579034878 -0.5140157822 1
151.0824907124 43.2682703435 10.6988269273 -0.4439183799 1
152.0334427059 43.2682703435 0 -0 0
152.9843946993 43.2682703435 10.3190513315 -0.6172514229 1
153.9353466928 43.2682703435 9.3891898285 -1.129104007 1
154.8862986863 43.2682703435 10.3929137545 -1.0443603714 1
155.8372506797 43.2682703435 10.2781291515 -1.0686524806 1
156.7882026732 43.2682703435 10.4008941386 -0.6883193915 1
157.7391546667 43.2682703435 0 -0 0
158.6901066601 43.2682703435 0 -0 0
159.6410586536 43.2682703435 0 -0 0
160.5920106471 43.2682703435 9.4975407417 -0.849223751 1
161.5429626405 43.2682703435 9.2592706032 -0.888493639 1
162.493914634 43.2682703435 0 -0 0
163.4448666275 43.2682703435 0 -0 0
164.3958186209 43.2682703435 10.6415107182 -0.8932393199 1
165.3467706144 43.2682703435 10.3998241864 -0.8686894283 1
166.2977226079 43.2682703435 10.0761721678 -0.5837373812 1
167.2486746013 43.2682703435 10.3256108066 -0.7585340382 1
168.1996265948 43.2682703435 0 -0 0
-22.9417240918 42.3173183501 0 -0 0
-21.9907720983 42.3173183501 8.7062683384 0.7976525178 1
-21.0398201048 42.3173183501 9.4292905212 1.0930004944 1
-20.0888681114 42.3173183501 9.4542348509 0.4353696321 1
-19.1379161179 42.3173183501 8.8796099224 0.3656744325 1
-18.1869641244 42.3173183501 9.8280736869 0.1455802827 1
-17.236012131 42.3173183501 9.2811386261 0.3643699914 1
-16.2850601375 42.3173183501 9.4664686447 0.2740762696 1
-15.334108144 42.3173183501 9.1752878915 -0.1931962642 1
-14.3831561506 42.3173183501 8.7158901442 0.4799209536 1
-13.4322041571 42.3173183501 8.5257771749 -0.0024551445 1
-12.4812521636 42.3173183501 9.4418333433 -0.0117950978 1
-11.5303001702 42.3173183501 9.4727517026 -0.174061356 1
-10.5793481767 42.3173183501 9.1145537362 0.6317307189 1
-9.6283961833 42.3173183501 9.1033200139 0.1215863315 1
-8.6774441898 42.3173183501 9.177048887 0.0958725368 1
-7.7264921963 42.3173183501 8.9966089694 0.4027438526 1
-6.7755402029 42.3173183501 9.7093835252 0.0576539662 1
-5.8245882094 42.3173183501 0 -0 0
-4.8736362159 42.3173183501 0 -0 0
-3.9226842225 42.3173183501 0 -0 0
-2.971732229 42.3173183501 0 -0 0
-2.0207802355 42.3173183501 0 -0 0
-1.0698282421 42.3173183501 0 -0 0
-0.1188762486 42.3173183501 0 -0 0
0.8320757449 42.3173183501 0 -0 0
1.7830277383 42.3173183501 0 -0 0
2.7339797318 42.3173183501 0 -0 0
3.6849317253 42.3173183501 0 -0 0
4.6358837187 42.3173183501 0 -0 0
5.5868357122 42.3173183501 0 -0 0
6.5377877057 42.3173183501 0 -0 0
7.4887396991 42.3173183501 0 -0 0
8.4396916926 42.3173183501 0 -0 0
9.3906436861 42.3173183501 0 -0 0
10.3415956795 42.3173183501 0 -0 0
11.292547673 42.3173183501 0 -0 0
12.2434996665 42.3173183501 0 -0 0
13.1944516599 42.3173183501 0 -0 0
14.1454036534 42.3173183501 0 -0 0
15.0963556468 42.3173183501 0 -0 0
16.0473076403 42.3173183501 9.5680535464 0.5595198115 1
16.9982596338 42.3173183501 10.042882521 0.8750369317 1
17.9492116272 42.3173183501 8.9812507287 1.1225134737 1
18.9001636207 42.3173183501 9.2948678684 0.6217175807 1
19.8511156142 42.3173183501 9.8170666889 0.6305761332 1
20.8020676076 42.3173183501 10.1260033698 0.9476826528 1
21.7530196011 42.3173183501 9.6366904405 1.1724557085 1
22.7039715946 42.3173183501 9.8146985072 0.647793979 1
23.654923588 42.3173183501 9.2556104036 0.3124990474 1
24.6058755815 42.3173183501 9.588951003 0.3846416269 1
25.556827575 42.3173183501 9.421822596 1.1282460264 1
26.5077795684 42.3173183501 0 -0 0
27.4587315619 42.3173183501 9.5680690754 0.6372707112 1
28.4096835554 42.3173183501 0 -0 0
29.3606355488 42.3173183501 10.2651701506 0.9068280242 1
30.3115875423 42.3173183501 9.8049897386 1.5159204788 1
31.2625395358 42.3173183501 8.9665509201 0.9076502879 1
32.2134915292 42.3173183501 8.9396654578 1.4027516745 1
33.1644435227 42.3173183501 8.9194295391 0.6868534482 1
34.1153955162 42.3173183501 0 -0 0
35.0663475096 42.3173183501 10.1193740139 0.6659932613 1
36.0172995031 42.3173183501 9.7427772168 0.6173709967 1
36.9682514966 42.3173183501 0 -0 0
37.91920349 42.3173183501 9.7432275595 0.9678137503 1
38.8701554835 42.3173183501 9.9107333227 1.0780227156 1
39.8211074769 42.3173183501 10.2909670257 0.5142953052 1
40.7720594704 42.3173183501 0 -0 0
41.7230114639 42.3173183501 10.0609536886 0.22661092 1
42.6739634573 42.3173183501 9.2720417025 0.6024506754 1
43.6249154508 42.3173183501 0 -0 0
44.5758674443 42.3173183501 0 -0 0
45.5268194377 42.3173183501 0 -0 0
46.4777714312 42.3173183501 9.5483689094 0.819061657 1
47.4287234247 42.3173183501 9.663276192 0.8048696487 1
48.3796754181 42.3173183501 9.7378793511 0.6687341405 1
49.3306274116 42.3173183501 9.862004684 0.847348617 1
50.2815794051 42.3173183501 0 -0 0
51.2325313985 42.3173183501 9.8900051328 0.7776332296 1
52.183483392 42.3173183501 0 -0 0
53.1344353855 42.3173183501 10.0620019002 0.4654129289 1
54.0853873789 42.3173183501 10.1517381287 0.9122072907 1
55.0363393724 42.3173183501 10.611038043 1.6584601715 1
55.9872913659 42.3173183501 10.0899852671 1.3370350202 1
56.9382433593 42.3173183501 9.8315335616 1.2742898516 1
57.8891953528 42.3173183501 9.9699984288 0.8014602434 1
58.8401473463 42.3173183501 0 -0 0
59.7910993397 42.3173183501 10.0896777917 1.2353848965 1
60.7420513332 42.3173183501 10.3131627118 1.0333758905 1
61.6930033267 42.3173183501 10.3492491424 0.6161674945 1
62.6439553201 42.3173183501 10.7222540679 0.654355007 1
63.5949073136 42.3173183501 10.5042276125 0.0892307576 1
64.5458593071 42.3173183501 9.750012206 0.3189987356 1
65.4968113005 42.3173183501 0 -0 0
66.447763294 42.3173183501 0 -0 0
67.3987152874 42.3173183501 0 -0 0
68.3496672809 42.3173183501 9.724626851 2.2194653375 1
69.3006192744 42.3173183501 0 -0 0
70.2515712678 42.3173183501 10.4703323323 0.0665140716 1
71.2025232613 42.3173183501 10.5724001877 0.7459718047 1
72.1534752548 42.3173183501 0 -0 0
73.1044272482 42.3173183501 10.1685312547 0.8268906328 1
74.0553792417 42.3173183501 10.115274342 0.5681811449 1
75.0063312352 42.3173183501 10.5399786154 0.488863363 1
75.9572832286 42.3173183501 10.6520782438 0.6228752722 1
76.9082352221 42.3173183501 10.5753926377 0.3979469259 1
77.8591872156 42.3173183501 10.027775851 0.3837657879 1
78.810139209 42.3173183501 10.4076958671 0.5051199599 1
79.7610912025 42.3173183501 9.8279199492 0.6202819191 1
80.712043196 42.3173183501 10.7013814578 0.4490934393 1
81.6629951894 42.3173183501 0 -0 0
82.6139471829 42.3173183501 10.445745171 -0.5147231309 1
83.5648991764 42.3173183501 10.2998077198 -0.1439862247 1
84.5158511698 42.3173183501 10.5948319155 0.0911221972 1
85.4668031633 42.3173183501 10.2499920469 -1.0835448495 1
86.4177551568 42.3173183501 0 -0 0
87.3687071502 42.3173183501 0 -0 0
88.3196591437 42.3173183501 0 -0 0
89.2706111372 42.3173183501 10.4598113939 0.374764368 1
90.2215631306 42.3173183501 0 -0 0
91.1725151241 42.3173183501 0 -0 0
92.1234671175 42.3173183501 0 -0 0
93.074419111 42.3173183501 0 -0 0
94.0253711045 42.3173183501 0 -0 0
94.9763230979 42.3173183501 0 -0 0
95.9272750914 42.3173183501 0 -0 0
96.8782270849 42.3173183501 0 -0 0
97.8291790783 42.3173183501 0 -0 0
98.7801310718 42.3173183501 0 -0 0
99.7310830653 42.3173183501 0 -0 0
100.6820350587 42.3173183501 0 -0 0
101.6329870522 42.3173183501 2.9158326646 1.1605938357 1
102.5839390457 42.3173183501 10.5676265546 -0.0216808977 1
103.5348910391 42.3173183501 0 -0 0
104.4858430326 42.3173183501 0 -0 0
105.4367950261 42.3173183501 0 -0 0
106.3877470195 42.3173183501 0 -0 0
107.338699013 42.3173183501 10.4175397385 0.2422393664 1
108.2896510065 42.3173183501 10.6833910413 -0.4584062168 1
109.2406029999 42.3173183501 0 -0 0
110.1915549934 42.3173183501 0 -0 0
111.1425069869 42.3173183501 0 -0 0
112.0934589803 42.3173183501 1.1517989523 -0.9235070115 1
113.0444109738 42.3173183501 9.9712671531 -0.4662747917 1
113.9953629673 42.3173183501 -0.758982828 1.2322177446 1
114.9463149607 42.3173183501 10.6033837691 -0.6019219109 1
115.8972669542 42.3173183501 0.2686822505 2.362876987 1
116.8482189476 42.3173183501 1.536179691 7.6551093444 1
117.7991709411 42.3173183501 2.2499077311 7.6871659838 1
118.7501229346 42.3173183501 -0.4432948881 -2.4998619348 1
119.701074928 42.3173183501 4.4277714923 5.0518060088 1
120.6520269215 42.3173183501 10.2267388319 -0.5332415354 1
121.602978915 42.3173183501 0 -0 0
122.5539309084 42.3173183501 10.6003198855 -0.1705215067 1
123.5048829019 42.3173183501 10.2566664371 -1.5131368947 1
124.4558348954 42.3173183501 10.1291542162 -0.6592497668 1
125.4067868888 42.3173183501 -0.4496773319 0.1482054704 1
126.3577388823 42.3173183501 -4.5517524049 -0.546254888 1
127.3086908758 42.3173183501 7.8779979486 -2.44068845 1
128.2596428692 42.3173183501 7.4668847088 -2.8677857517 1
129.2105948627 42.3173183501 4.7815560997 -2.2511531618 1
130.1615468562 42.3173183501 -1.500099472 -9.7493102925 1
131.1124988496 42.3173183501 -0.6986120527 -8.1660899717 1
132.0634508431 42.3173183501 1.963766158 3.154261976 1
133.0144028366 42.3173183501 -7.3331088414 -8.4317518199 1
133.96535483 42.3173183501 -9.0899091173 -4.4994877991 1
134.9163068235 42.3173183501 -4.0440693735 -0.4446218463 1
135.867258817 42.3173183501 6.4686254591 2.7672156741 1
136.8182108104 42.3173183501 0 -0 0
137.7691628039 42.3173183501 0 -0 0
138.7201147974 42.3173183501 10.3929525771 -0.7725466858 1
139.6710667908 42.3173183501 10.4789074795 -0.6338675176 1
140.6220187843 42.3173183501 0 -0 0
141.5729707778 42.3173183501 10.2994210462 -0.3959762881 1
142.5239227712 42.3173183501 10.3150991856 -0.6354576934 1
143.4748747647 42.3173183501 0 -0 0
144.4258267581 42.3173183501 0 -0 0
145.3767787516 42.3173183501 10.1692828612 -0.7958076654 1
146.3277307451 42.3173183501 10.832178075 -0.3551107891 1
147.2786827385 42.3173183501 0 -0 0
148.229634732 42.3173183501 0 -0 0
149.1805867255 42.3173183501 9.6935687301 -0.8581141381 1
150.1315387189 42.3173183501 0 -0 0
151.0824907124 42.3173183501 0 -0 0
152.0334427059 42.3173183501 9.8805898635 -1.0919204482 1
152.9843946993 42.3173183501 10.3628852104 -0.9991723584 1
153.9353466928 42.3173183501 9.7331600697 -0.9128680522 1
154.8862986863 42.3173183501 9.9042996329 -0.5041524994 1
155.8372506797 42.3173183501 10.1778595613 -0.6989715505 1
156.7882026732 42.3173183501 10.5244417904 -0.7531423484 1
157.7391546667 42.3173183501 10.3070861905 -1.6492374625 1
158.6901066601 42.3173183501 10.6324013714 -0.4727977735 1
159.6410586536 42.3173183501 0 -0 0
160.5920106471 42.3173183501 9.4982643959 -0.8250636388 1
161.5429626405 42.3173183501 10.1133922198 -1.0578970533 1
162.493914634 42.3173183501 10.3663404263 -0.6516350921 1
163.4448666275 42.3173183501 0 -0 0
164.3958186209 42.3173183501 10.423465628 -0.5242075045 1
165.3467706144 42.3173183501 0 -0 0
166.2977226079 42.3173183501 9.8041977565 -0.6436919776 1
167.2486746013 42.3173183501 10.1872096086 -0.3475659951 1
168.1996265948 42.3173183501 0 -0 0
-22.9417240918 41.3663663566 0 -0 0
-21.9907720983 41.3663663566 8.5374053354 -0.4896879561 1
-21.0398201048 41.3663663566 0 -0 0
-20.0888681114 41.3663663566 9.6356220412 0.2793204333 1
-19.1379161179 41.3663663566 9.0145031057 0.4434532845 1
-18.1869641244 41.3663663566 9.4021628055 -0.3373439911 1
-17.236012131 41.3663663566 9.3096639571 -0.4819591427 1
-16.2850601375 41.3663663566 9.7424650827 -0.0784101083 1
-15.334108144 41.3663663566 9.5933239864 0.1258707992 1
-14.3831561506 41.3663663566 8.3485952543 0.1546469246 1
-13.4322041571 41.3663663566 8.3495627147 0.6641530677 1
-12.4812521636 41.3663663566 0 -0 0
-11.5303001702 41.3663663566 9.2847009925 0.1096926241 1
-10.5793481767 41.3663663566 9.7155252686 0.0015878464 1
-9.6283961833 41.3663663566 9.6610353485 -0.3170148981 1
-8.6774441898 41.3663663566 9.6753096609 -0.2317650151 1
-7.7264921963 41.3663663566 9.595512031 0.2849823287 1
-6.7755402029 41.3663663566 8.9367149363 0.6279462868 1
-5.8245882094 41.3663663566 0 -0 0
-4.8736362159 41.3663663566 0 -0 0
-3.9226842225 41.3663663566 0 -0 0
-2.971732229 41.3663663566 0 -0 0
-2.0207802355 41.3663663566 0 -0 0
-1.0698282421 41.3663663566 0 -0 0
-0.1188762486 41.3663663566 0 -0 0
0.8320757449 41.3663663566 0 -0 0
1.7830277383 41.3663663566 0 -0 0
2.7339797318 41.3663663566 0 -0 0
3.6849317253 41.3663663566 0 -0 0
4.6358837187 41.3663663566 0 -0 0
5.5868357122 41.3663663566 0 -0 0
6.5377877057 41.3663663566 0 -0 0
7.4887396991 41.3663663566 0 -0 0
8.4396916926 41.3663663566 0 -0 0
9.3906436861 41.3663663566 0 -0 0
10.3415956795 41.3663663566 0 -0 0
11.292547673 41.3663663566 0 -0 0
12.2434996665 41.3663663566 0 -0 0
13.1944516599 41.3663663566 0 -0 0
14.1454036534 41.3663663566 0 -0 0
15.0963556468 41.3663663566 0 -0 0
16.0473076403 41.3663663566 9.3184394292 1.0645458205 1
16.9982596338 41.3663663566 10.0861930705 0.8122902102 1
17.9492116272 41.3663663566 9.1207902069 0.9099602357 1
18.9001636207 41.3663663566 9.8015888744 0.674212793 1
19.8511156142 41.3663663566 9.842253272 0.6016749989 1
20.8020676076 41.3663663566 9.5310509012 1.0624361977 1
21.7530196011 41.3663663566 9.3327323764 0.5158668462 1
22.7039715946 41.3663663566 9.2172008256 0.5610882466 1
23.654923588 41.3663663566 9.4823036276 0.3089133873 1
24.6058755815 41.3663663566 9.6754587399 0.4938932257 1
25.556827575 41.3663663566 9.6973904319 0.5813171771 1
26.5077795684 41.3663663566 9.3883450476 0.6253847683 1
27.4587315619 41.3663663566 9.4008055656 0.7026534907 1
28.4096835554 41.3663663566 9.5344222602 0.3813021025 1
29.3606355488 41.3663663566 0 -0 0
30.3115875423 41.3663663566 9.7810749856 1.7199653446 1
31.2625395358 41.3663663566 0 -0 0
32.2134915292 41.3663663566 8.9128141594 1.5287575766 1
33.1644435227 41.3663663566 9.2437151433 0.7564974019 1
34.1153955162 41.3663663566 9.5422116369 0.8761961761 1
35.0663475096 41.3663663566 10.3312230091 0.8832859686 1
36.0172995031 41.3663663566 9.2415861092 0.5279088561 1
36.9682514966 41.3663663566 9.8175030555 0.5703862715 1
37.91920349 41.3663663566 9.7371013452 0.9429470658 1
38.8701554835 41.3663663566 9.5246529283 0.5343611807 1
39.8211074769 41.3663663566 10.1873586875 0.7211136613 1
40.7720594704 41.3663663566 9.4725016847 0.7640336549 1
41.7230114639 41.3663663566 10.4406469804 0.3364363175 1
42.6739634573 41.3663663566 0 -0 0
43.6249154508 41.3663663566 0 -0 0
44.5758674443 41.3663663566 9.3952244213 0.5222485135 1