TITLE = "B00091"
VARIABLES = "x", "y", "Vx", "Vy", "isValid"
ZONE T="Frame 0", I=202, J=155, F=POINT
-22.9417240918 44.219222337 0 -0 0
-21.9907720983 44.219222337 0 -0 0
-21.0398201048 44.219222337 0 -0 0
-20.0888681114 44.219222337 0 -0 0
-19.1379161179 44.219222337 0 -0 0
-18.1869641244 44.219222337 0 -0 0
-17.236012131 44.219222337 0 -0 0
-16.2850601375 44.219222337 0 -0 0
-15.334108144 44.219222337 0 -0 0
-14.3831561506 44.219222337 0 -0 0
-13.4322041571 44.219222337 0 -0 0
-12.4812521636 44.219222337 0 -0 0
-11.5303001702 44.219222337 0 -0 0
-10.5793481767 44.219222337 0 -0 0
-9.6283961833 44.219222337 0 -0 0
-8.6774441898 44.219222337 0 -0 0
-7.7264921963 44.219222337 0 -0 0
-6.7755402029 44.219222337 0 -0 0
-5.8245882094 44.219222337 0 -0 0
-4.8736362159 44.219222337 0 -0 0
-3.9226842225 44.219222337 0 -0 0
-2.971732229 44.219222337 0 -0 0
-2.0207802355 44.219222337 0 -0 0
-1.0698282421 44.219222337 0 -0 0
-0.1188762486 44.219222337 0 -0 0
0.8320757449 44.219222337 0 -0 0
1.7830277383 44.219222337 0 -0 0
2.7339797318 44.219222337 0 -0 0
3.6849317253 44.219222337 0 -0 0
4.6358837187 44.219222337 0 -0 0
5.5868357122 44.219222337 0 -0 0
6.5377877057 44.219222337 0 -0 0
7.4887396991 44.219222337 0 -0 0
8.4396916926 44.219222337 0 -0 0
9.3906436861 44.219222337 0 -0 0
10.3415956795 44.219222337 0 -0 0
11.292547673 44.219222337 0 -0 0
12.2434996665 44.219222337 0 -0 0
13.1944516599 44.219222337 0 -0 0
14.1454036534 44.219222337 0 -0 0
15.0963556468 44.219222337 0 -0 0
16.0473076403 44.219222337 0 -0 0
16.9982596338 44.219222337 0 -0 0
17.9492116272 44.219222337 0 -0 0
18.9001636207 44.219222337 0 -0 0
19.8511156142 44.219222337 0 -0 0
20.8020676076 44.219222337 0 -0 0
21.7530196011 44.219222337 0 -0 0
22.7039715946 44.219222337 0 -0 0
23.654923588 44.219222337 0 -0 0
24.6058755815 44.219222337 0 -0 0
25.556827575 44.219222337 0 -0 0
26.5077795684 44.219222337 0 -0 0
27.4587315619 44.219222337 0 -0 0
28.4096835554 44.219222337 0 -0 0
29.3606355488 44.219222337 0 -0 0
30.3115875423 44.219222337 0 -0 0
31.2625395358 44.219222337 0 -0 0
32.2134915292 44.219222337 0 -0 0
33.1644435227 44.219222337 0 -0 0
34.1153955162 44.219222337 0 -0 0
35.0663475096 44.219222337 0 -0 0
36.0172995031 44.219222337 0 -0 0
36.9682514966 44.219222337 0 -0 0
37.91920349 44.219222337 0 -0 0
38.8701554835 44.219222337 0 -0 0
39.8211074769 44.219222337 0 -0 0
40.7720594704 44.219222337 0 -0 0
41.7230114639 44.219222337 0 -0 0
42.6739634573 44.219222337 0 -0 0
43.6249154508 44.219222337 0 -0 0
44.5758674443 44.219222337 0 -0 0
45.5268194377 44.219222337 0 -0 0
46.4777714312 44.219222337 0 -0 0
47.4287234247 44.219222337 0 -0 0
48.3796754181 44.219222337 0 -0 0
49.3306274116 44.219222337 0 -0 0
50.2815794051 44.219222337 0 -0 0
51.2325313985 44.219222337 0 -0 0
52.183483392 44.219222337 0 -0 0
53.1344353855 44.219222337 0 -0 0
54.0853873789 44.219222337 0 -0 0
55.0363393724 44.219222337 0 -0 0
55.9872913659 44.219222337 0 -0 0
56.9382433593 44.219222337 0 -0 0
57.8891953528 44.219222337 0 -0 0
58.8401473463 44.219222337 0 -0 0
59.7910993397 44.219222337 0 -0 0
60.7420513332 44.219222337 0 -0 0
61.6930033267 44.219222337 0 -0 0
62.6439553201 44.219222337 0 -0 0
63.5949073136 44.219222337 0 -0 0
64.5458593071 44.219222337 0 -0 0
65.4968113005 44.219222337 0 -0 0
66.447763294 44.219222337 0 -0 0
67.3987152874 44.219222337 0 -0 0
68.3496672809 44.219222337 0 -0 0
69.3006192744 44.219222337 0 -0 0
70.2515712678 44.219222337 0 -0 0
71.2025232613 44.219222337 0 -0 0
72.1534752548 44.219222337 0 -0 0
73.1044272482 44.219222337 0 -0 0
74.0553792417 44.219222337 0 -0 0
75.0063312352 44.219222337 0 -0 0
75.9572832286 44.219222337 0 -0 0
76.9082352221 44.219222337 0 -0 0
77.8591872156 44.219222337 0 -0 0
78.810139209 44.219222337 0 -0 0
79.7610912025 44.219222337 0 -0 0
80.712043196 44.219222337 0 -0 0
81.6629951894 44.219222337 0 -0 0
82.6139471829 44.219222337 0 -0 0
83.5648991764 44.219222337 0 -0 0
84.5158511698 44.219222337 0 -0 0
85.4668031633 44.219222337 0 -0 0
86.4177551568 44.219222337 0 -0 0
87.3687071502 44.219222337 0 -0 0
88.3196591437 44.219222337 0 -0 0
89.2706111372 44.219222337 0 -0 0
90.2215631306 44.219222337 0 -0 0
91.1725151241 44.219222337 0 -0 0
92.1234671175 44.219222337 0 -0 0
93.074419111 44.219222337 0 -0 0
94.0253711045 44.219222337 0 -0 0
94.9763230979 44.219222337 0 -0 0
95.9272750914 44.219222337 0 -0 0
96.8782270849 44.219222337 0 -0 0
97.8291790783 44.219222337 0 -0 0
98.7801310718 44.219222337 0 -0 0
99.7310830653 44.219222337 0 -0 0
100.6820350587 44.219222337 0 -0 0
101.6329870522 44.219222337 0 -0 0
102.5839390457 44.219222337 0 -0 0
103.5348910391 44.219222337 0 -0 0
104.4858430326 44.219222337 0 -0 0
105.4367950261 44.219222337 0 -0 0
106.3877470195 44.219222337 0 -0 0
107.338699013 44.219222337 0 -0 0
108.2896510065 44.219222337 0 -0 0
109.2406029999 44.219222337 0 -0 0
110.1915549934 44.219222337 0 -0 0
111.1425069869 44.219222337 0 -0 0
112.0934589803 44.219222337 0 -0 0
113.0444109738 44.219222337 0 -0 0
113.9953629673 44.219222337 0 -0 0
114.9463149607 44.219222337 0 -0 0
115.8972669542 44.219222337 0 -0 0
116.8482189476 44.219222337 0 -0 0
117.7991709411 44.219222337 0 -0 0
118.7501229346 44.219222337 0 -0 0
119.701074928 44.219222337 0 -0 0
120.6520269215 44.219222337 0 -0 0
121.602978915 44.219222337 0 -0 0
122.5539309084 44.219222337 0 -0 0
123.5048829019 44.219222337 0 -0 0
124.4558348954 44.219222337 0 -0 0
125.4067868888 44.219222337 0 -0 0
126.3577388823 44.219222337 0 -0 0
127.3086908758 44.219222337 0 -0 0
128.2596428692 44.219222337 0 -0 0
129.2105948627 44.219222337 0 -0 0
130.1615468562 44.219222337 0 -0 0
131.1124988496 44.219222337 0 -0 0
132.0634508431 44.219222337 0 -0 0
133.0144028366 44.219222337 0 -0 0
133.96535483 44.219222337 0 -0 0
134.9163068235 44.219222337 0 -0 0
135.867258817 44.219222337 0 -0 0
136.8182108104 44.219222337 0 -0 0
137.7691628039 44.219222337 0 -0 0
138.7201147974 44.219222337 0 -0 0
139.6710667908 44.219222337 0 -0 0
140.6220187843 44.219222337 0 -0 0
141.5729707778 44.219222337 0 -0 0
142.5239227712 44.219222337 0 -0 0
143.4748747647 44.219222337 0 -0 0
144.4258267581 44.219222337 0 -0 0
145.3767787516 44.219222337 0 -0 0
146.3277307451 44.219222337 0 -0 0
147.2786827385 44.219222337 0 -0 0
148.229634732 44.219222337 0 -0 0
149.1805867255 44.219222337 0 -0 0
150.1315387189 44.219222337 0 -0 0
151.0824907124 44.219222337 0 -0 0
152.0334427059 44.219222337 0 -0 0
152.9843946993 44.219222337 0 -0 0
153.9353466928 44.219222337 0 -0 0
154.8862986863 44.219222337 0 -0 0
155.8372506797 44.219222337 0 -0 0
156.7882026732 44.219222337 0 -0 0
157.7391546667 44.219222337 0 -0 0
158.6901066601 44.219222337 0 -0 0
159.6410586536 44.219222337 0 -0 0
160.5920106471 44.219222337 0 -0 0
161.5429626405 44.219222337 0 -0 0
162.493914634 44.219222337 0 -0 0
163.4448666275 44.219222337 0 -0 0
164.3958186209 44.219222337 0 -0 0
165.3467706144 44.219222337 0 -0 0
166.2977226079 44.219222337 0 -0 0
167.2486746013 44.219222337 0 -0 0
168.1996265948 44.219222337 0 -0 0
-22.9417240918 43.2682703435 0 -0 0
-21.9907720983 43.2682703435 0 -0 0
-21.0398201048 43.2682703435 9.1142167556 -0.0622280509 1
-20.0888681114 43.2682703435 9.7957701355 0.9264288043 1
-19.1379161179 43.2682703435 9.3634333288 0.4424928121 1
-18.1869641244 43.2682703435 9.7467650795 -0.3191749904 1
-17.236012131 43.2682703435 9.5677569413 -0.1524285984 1
-16.2850601375 43.2682703435 9.6694427818 0.3572079888 1
-15.334108144 43.2682703435 9.2914670041 -0.3710179822 1
-14.3831561506 43.2682703435 9.2545062874 0.020858634 1
-13.4322041571 43.2682703435 9.1083747231 -0.4155700801 1
-12.4812521636 43.2682703435 9.0731128856 0.028600647 1
-11.5303001702 43.2682703435 9.0360900526 0.0412249967 1
-10.5793481767 43.2682703435 9.560307651 0.1204573688 1
-9.6283961833 43.2682703435 9.5459028946 0.4396657467 1
-8.6774441898 43.2682703435 9.2934593826 0.4683083222 1
-7.7264921963 43.2682703435 9.4545531967 0.4795195273 1
-6.7755402029 43.2682703435 9.131994424 0.4341948587 1
-5.8245882094 43.2682703435 0 -0 0
-4.8736362159 43.2682703435 0 -0 0
-3.9226842225 43.2682703435 0 -0 0
-2.971732229 43.2682703435 0 -0 0
-2.0207802355 43.2682703435 0 -0 0
-1.0698282421 43.2682703435 0 -0 0
-0.1188762486 43.2682703435 0 -0 0
0.8320757449 43.2682703435 0 -0 0
1.7830277383 43.2682703435 0 -0 0
2.7339797318 43.2682703435 0 -0 0
3.6849317253 43.2682703435 0 -0 0
4.6358837187 43.2682703435 0 -0 0
5.5868357122 43.2682703435 0 -0 0
6.5377877057 43.2682703435 0 -0 0
7.4887396991 43.2682703435 0 -0 0
8.4396916926 43.2682703435 0 -0 0
9.3906436861 43.2682703435 0 -0 0
10.3415956795 43.2682703435 0 -0 0
11.292547673 43.2682703435 0 -0 0
12.2434996665 43.2682703435 0 -0 0
13.1944516599 43.2682703435 0 -0 0
14.1454036534 43.2682703435 0 -0 0
15.0963556468 43.2682703435 0 -0 0
16.0473076403 43.2682703435 9.2630379532 0.8089530151 1
16.9982596338 43.2682703435 9.5202814978 0.7311555282 1
17.9492116272 43.2682703435 9.5127654326 0.6683668782 1
18.9001636207 43.2682703435 8.7018720614 -0.0667384665 1
19.8511156142 43.2682703435 9.5052183092 0.533686443 1
20.8020676076 43.2682703435 9.3192469403 0.3112520638 1
21.7530196011 43.2682703435 9.625493988 0.7918679428 1
22.7039715946 43.2682703435 10.0760060069 0.5807224141 1
23.654923588 43.2682703435 10.0802376759 0.103883979 1
24.6058755815 43.2682703435 9.4265015019 0.2389456527 1
25.556827575 43.2682703435 9.3004629888 1.4234418182 1
26.5077795684 43.2682703435 10.2604260226 0.8209305794 1
27.4587315619 43.2682703435 9.4808811657 0.9742823804 1
28.4096835554 43.2682703435 9.7262232384 0.9142190805 1
29.3606355488 43.2682703435 10.369618611 0.9963988682 1
30.3115875423 43.2682703435 9.5494590494 1.0812449957 1
31.2625395358 43.2682703435 9.8869132969 1.474729646 1
32.2134915292 43.2682703435 9.994523474 0.3441534841 1
33.1644435227 43.2682703435 10.1715718447 -0.1422469699 1
34.1153955162 43.2682703435 10.0523816473 0.3289326755 1
35.0663475096 43.2682703435 9.0491608628 0.8797088495 1
36.0172995031 43.2682703435 9.3451447544 0.5861187626 1
36.9682514966 43.2682703435 9.0422286902 0.7859529237 1
37.91920349 43.2682703435 8.7344318423 0.2906791646 1
38.8701554835 43.2682703435 9.4125874638 1.00110495 1
39.8211074769 43.2682703435 9.3581938239 0.5746233756 1
40.7720594704 43.2682703435 0 -0 0
41.7230114639 43.2682703435 0 -0 0
42.6739634573 43.2682703435 0 -0 0
43.6249154508 43.2682703435 10.3600014638 0.5532018132 1
44.5758674443 43.2682703435 10.0236963669 1.0907247106 1
45.5268194377 43.2682703435 8.8948641185 0.8696405832 1
46.4777714312 43.2682703435 0 -0 0
47.4287234247 43.2682703435 9.7060509889 0.3273494878 1
48.3796754181 43.2682703435 10.2237401703 0.4439044037 1
49.3306274116 43.2682703435 10.2278786649 0.5402047661 1
50.2815794051 43.2682703435 9.4472436679 1.1212431966 1
51.2325313985 43.2682703435 9.2422445413 1.1639675241 1
52.183483392 43.2682703435 9.5465877261 0.8765743087 1
53.1344353855 43.2682703435 9.3190233219 1.5159818186 1
54.0853873789 43.2682703435 10.1797059666 0.7036015398 1
55.0363393724 43.2682703435 10.0298520864 1.4214416752 1
55.9872913659 43.2682703435 10.1409671724 1.1628898073 1
56.9382433593 43.2682703435 9.9147755371 1.0050291436 1
57.8891953528 43.2682703435 10.4040682786 0.5647406816 1
58.8401473463 43.2682703435 10.0436667386 0.7336813299 1
59.7910993397 43.2682703435 10.5990014682 0.4628886801 1
60.7420513332 43.2682703435 9.6750565372 0.596871084 1
61.6930033267 43.2682703435 9.9996263232 0.5556080411 1
62.6439553201 43.2682703435 0 -0 0
63.5949073136 43.2682703435 10.2795904361 0.7876184154 1
64.5458593071 43.2682703435 0 -0 0
65.4968113005 43.2682703435 10.0865067575 0.5666880257 1
66.447763294 43.2682703435 0 -0 0
67.3987152874 43.2682703435 0 -0 0
68.3496672809 43.2682703435 10.2217276041 -0.0851427325 1
69.3006192744 43.2682703435 10.470998529 0.460617555 1
70.2515712678 43.2682703435 10.4686396647 0.9224494825 1
71.2025232613 43.2682703435 0 -0 0
72.1534752548 43.2682703435 10.4270823461 -0.1415132218 1
73.1044272482 43.2682703435 10.028074009 1.7910938765 1
74.0553792417 43.2682703435 10.5412690803 0.9357392524 1
75.0063312352 43.2682703435 10.2094503289 0.456022506 1
75.9572832286 43.2682703435 9.7422166177 0.4920677846 1
76.9082352221 43.2682703435 9.7359009488 -0.0934779556 1
77.8591872156 43.2682703435 0 -0 0
78.810139209 43.2682703435 9.5536239434 0.3732075797 1
79.7610912025 43.2682703435 9.9566061671 0.9101333847 1
80.712043196 43.2682703435 10.5770775407 -0.7086011208 1
81.6629951894 43.2682703435 9.5071004313 -0.5555676656 1
82.6139471829 43.2682703435 0 -0 0
83.5648991764 43.2682703435 10.1740875525 0.0418787701 1
84.5158511698 43.2682703435 0 -0 0
85.4668031633 43.2682703435 9.3231260996 -0.0921735146 1
86.4177551568 43.2682703435 9.896597219 1.6867129675 1
87.3687071502 43.2682703435 10.5191355105 -0.1260439483 1
88.3196591437 43.2682703435 0 -0 0
89.2706111372 43.2682703435 0 -0 0
90.2215631306 43.2682703435 0 -0 0
91.1725151241 43.2682703435 0 -0 0
92.1234671175 43.2682703435 0 -0 0
93.074419111 43.2682703435 0 -0 0
94.0253711045 43.2682703435 0 -0 0
94.9763230979 43.2682703435 0 -0 0
95.9272750914 43.2682703435 0 -0 0
96.8782270849 43.2682703435 0 -0 0
97.8291790783 43.2682703435 0 -0 0
98.7801310718 43.2682703435 0 -0 0
99.7310830653 43.2682703435 0 -0 0
100.6820350587 43.2682703435 0 -0 0
101.6329870522 43.2682703435 10.4895945789 -0.757834454 1
102.5839390457 43.2682703435 0 -0 0
103.5348910391 43.2682703435 10.5011606231 -0.274556894 1
104.4858430326 43.2682703435 10.3945536233 -0.4524849861 1
105.4367950261 43.2682703435 10.414143533 0.2355556588 1
106.3877470195 43.2682703435 10.6347400479 0.1238621153 1
107.338699013 43.2682703435 10.2370113053 -0.36679796 1
108.2896510065 43.2682703435 0 -0 0
109.2406029999 43.2682703435 0 -0 0
110.1915549934 43.2682703435 10.4570503269 0.4519942677 1
111.1425069869 43.2682703435 0 -0 0
112.0934589803 43.2682703435 10.3541454552 0.0082443782 1
113.0444109738 43.2682703435 0 -0 0
113.9953629673 43.2682703435 10.5202303093 0.3025674368 1
114.9463149607 43.2682703435 10.5369302608 -0.4381811685 1
115.8972669542 43.2682703435 10.3192004105 0.0342640954 1
116.8482189476 43.2682703435 10.3822747952 -0.8263377982 1
117.7991709411 43.2682703435 0 -0 0
118.7501229346 43.2682703435 10.4480108609 -0.1880941914 1
119.701074928 43.2682703435 9.8046480993 -0.4305098127 1
120.6520269215 43.2682703435 10.335884833 -0.1403718359 1
121.602978915 43.2682703435 10.2023038553 -0.4085260983 1
122.5539309084 43.2682703435 0 -0 0
123.5048829019 43.2682703435 0 -0 0
124.4558348954 43.2682703435 0 -0 0
125.4067868888 43.2682703435 10.2144972735 -0.7206998118 1
126.3577388823 43.2682703435 10.3345182757 -0.7993762435 1
127.3086908758 43.2682703435 0 -0 0
128.2596428692 43.2682703435 0 -0 0
129.2105948627 43.2682703435 10.8057258734 -0.7601607073 1
130.1615468562 43.2682703435 0 -0 0
131.1124988496 43.2682703435 10.2729781622 -0.168391696 1
132.0634508431 43.2682703435 10.2203424119 -0.3216837101 1
133.0144028366 43.2682703435 0 -0 0
133.96535483 43.2682703435 9.9746431708 -0.1624005845 1
134.9163068235 43.2682703435 0 -0 0
135.867258817 43.2682703435 0 -0 0
136.8182108104 43.2682703435 0 -0 0
137.7691628039 43.2682703435 0 -0 0
138.7201147974 43.2682703435 0 -0 0
139.6710667908 43.2682703435 10.016091786 -0.0954773222 1
140.6220187843 43.2682703435 10.4516896953 -0.7216812484 1
141.5729707778 43.2682703435 10.3590262388 0.1831707028 1
142.5239227712 43.2682703435 10.038866706 -0.3148136538 1
143.4748747647 43.2682703435 10.0948256752 -0.2908989008 1
144.4258267581 43.2682703435 10.0303567809 -0.0727047315 1
145.3767787516 43.2682703435 10.0671016436 -0.099587088 1
146.3277307451 43.2682703435 0 -0 0
147.2786827385 43.2682703435 10.0734996165 -0.1149065061 1
148.229634732 43.2682703435 0 -0 0
149.1805867255 43.2682703435 10.586328202 -0.3661659273 1
150.1315387189 43.2682703435 10.4186624896 -0.6310024059 1
151.0824907124 43.2682703435 9.8775461676 -0.2743868508 1
152.0334427059 43.2682703435 10.0108010351 -0.3288068902 1
152.9843946993 43.2682703435 10.5139084288 -0.9473146141 1
153.9353466928 43.2682703435 9.3922288656 0.2999360375 1
154.8862986863 43.2682703435 9.9805147086 -0.5263225625 1
155.8372506797 43.2682703435 10.1353192532 0.0076899907 1
156.7882026732 43.2682703435 9.7276208538 0.4047486543 1
157.7391546667 43.2682703435 9.276147586 0.0059088075 1
158.6901066601 43.2682703435 9.9581590732 -0.0319122192 1
159.6410586536 43.2682703435 9.9354835391 0.3043556081 1
160.5920106471 43.2682703435 10.1981886543 0.2456743946 1
161.5429626405 43.2682703435 9.6844780181 0.5435077973 1
162.493914634 43.2682703435 10.3318923116 -0.0446064496 1
163.4448666275 43.2682703435 9.7045182706 0.7595069338 1
164.3958186209 43.2682703435 10.1372215631 0.231337966 1
165.3467706144 43.2682703435 10.2042123768 -0.3279760854 1
166.2977226079 43.2682703435 0 -0 0
167.2486746013 43.2682703435 10.0491236504 0.0134761186 1
168.1996265948 43.2682703435 0 -0 0
-22.9417240918 42.3173183501 0 -0 0
-21.9907720983 42.3173183501 9.3741747799 -0.5250476267 1
-21.0398201048 42.3173183501 9.0295445537 0.3284147814 1
-20.0888681114 42.3173183501 0 -0 0
-19.1379161179 42.3173183501 8.9393828289 0.4113221056 1
-18.1869641244 42.3173183501 9.4769818186 0.5916975776 1
-17.236012131 42.3173183501 0 -0 0
-16.2850601375 42.3173183501 9.212813866 -0.5621092823 1
-15.334108144 42.3173183501 9.3473855978 -0.5320916085 1
-14.3831561506 42.3173183501 9.0326954 0.0871001705 1
-13.4322041571 42.3173183501 9.1121669196 -0.5375896723 1
-12.4812521636 42.3173183501 9.0841369656 -0.1528199307 1
-11.5303001702 42.3173183501 8.9654980498 -0.1443076762 1
-10.5793481767 42.3173183501 9.2265182618 0.1375199239 1
-9.6283961833 42.3173183501 10.224372203 0.3676916574 1
-8.6774441898 42.3173183501 9.3183074322 -0.2491963855 1
-7.7264921963 42.3173183501 9.4935777255 0.3892149352 1
-6.7755402029 42.3173183501 9.0906048192 0.2624271449 1
-5.8245882094 42.3173183501 0 -0 0
-4.8736362159 42.3173183501 0 -0 0
-3.9226842225 42.3173183501 0 -0 0
-2.971732229 42.3173183501 0 -0 0
-2.0207802355 42.3173183501 0 -0 0
-1.0698282421 42.3173183501 0 -0 0
-0.1188762486 42.3173183501 0 -0 0
0.8320757449 42.3173183501 0 -0 0
1.7830277383 42.3173183501 0 -0 0
2.7339797318 42.3173183501 0 -0 0
3.6849317253 42.3173183501 0 -0 0
4.6358837187 42.3173183501 0 -0 0
5.5868357122 42.3173183501 0 -0 0
6.5377877057 42.3173183501 0 -0 0
7.4887396991 42.3173183501 0 -0 0
8.4396916926 42.3173183501 0 -0 0
9.3906436861 42.3173183501 0 -0 0
10.3415956795 42.3173183501 0 -0 0
11.292547673 42.3173183501 0 -0 0
12.2434996665 42.3173183501 0 -0 0
13.1944516599 42.3173183501 0 -0 0
14.1454036534 42.3173183501 0 -0 0
15.0963556468 42.3173183501 0 -0 0
16.0473076403 42.3173183501 9.1301464658 0.7376094057 1
16.9982596338 42.3173183501 9.1475840477 0.8955453853 1
17.9492116272 42.3173183501 9.0171616809 0.2276047799 1
18.9001636207 42.3173183501 8.9857681323 -0.3766705602 1
19.8511156142 42.3173183501 9.4259750668 0.404398474 1
20.8020676076 42.3173183501 9.5381414702 0.467500811 1
21.7530196011 42.3173183501 10.2590175368 0.7473903844 1
22.7039715946 42.3173183501 9.5302806598 0.5342128781 1
23.654923588 42.3173183501 9.6623087315 0.556080901 1
24.6058755815 42.3173183501 8.9112534888 0.1458706761 1
25.556827575 42.3173183501 9.3257442992 0.9437879644 1
26.5077795684 42.3173183501 0 -0 0
27.4587315619 42.3173183501 10.1876630571 0.650958025 1
28.4096835554 42.3173183501 9.741533339 0.4543764256 1
29.3606355488 42.3173183501 9.4548171907 0.4885923809 1
30.3115875423 42.3173183501 9.7568279106 1.5404602765 1
31.2625395358 42.3173183501 0 -0 0
32.2134915292 42.3173183501 9.9503572732 0.9297784226 1
33.1644435227 42.3173183501 9.4476582938 0.8265505464 1
34.1153955162 42.3173183501 9.5933053515 0.6600277728 1
35.0663475096 42.3173183501 9.5027103659 1.0562043857 1
36.0172995031 42.3173183501 9.6232267451 1.2410165102 1
36.9682514966 42.3173183501 9.7182661478 0.7674950825 1
37.91920349 42.3173183501 9.7763386222 0.5546662036 1
38.8701554835 42.3173183501 9.7428455446 1.0614920308 1
39.8211074769 42.3173183501 9.0948163004 0.6768868972 1
40.7720594704 42.3173183501 9.8817359081 0.4938349917 1
41.7230114639 42.3173183501 0 -0 0
42.6739634573 42.3173183501 0 -0 0
43.6249154508 42.3173183501 10.4034719627 0.6431779657 1
44.5758674443 42.3173183501 9.3141192446 0.6946684478 1
45.5268194377 42.3173183501 9.7224263831 0.7435267542 1
46.4777714312 42.3173183501 0 -0 0
47.4287234247 42.3173183501 9.8917847631 0.8569642112 1
48.3796754181 42.3173183501 10.1417700249 1.1309628355 1
49.3306274116 42.3173183501 10.4044114708 0.9276493884 1
50.2815794051 42.3173183501 9.7087639157 0.7572365852 1
51.2325313985 42.3173183501 10.2055571934 0.8602191023 1
52.183483392 42.3173183501 9.2573015183 1.013748711 1
53.1344353855 42.3173183501 0 -0 0
54.0853873789 42.3173183501 10.0084654644 0.5805430535 1
55.0363393724 42.3173183501 9.348969562 0.9320316893 1
55.9872913659 42.3173183501 9.1672950841 0.8055606918 1
56.9382433593 42.3173183501 10.0050133543 1.3805334713 1
57.8891953528 42.3173183501 0 -0 0
58.8401473463 42.3173183501 9.6824219705 0.8869919789 1
59.7910993397 42.3173183501 10.0994114068 0.1278492015 1
60.7420513332 42.3173183501 0 -0 0
61.6930033267 42.3173183501 9.8361565629 0.2568630826 1
62.6439553201 42.3173183501 10.4465961635 1.0470531104 1
63.5949073136 42.3173183501 0 -0 0
64.5458593071 42.3173183501 10.2314596662 1.0451903996 1
65.4968113005 42.3173183501 10.1020622174 0.9593915644 1
66.447763294 42.3173183501 0 -0 0
67.3987152874 42.3173183501 0 -0 0
68.3496672809 42.3173183501 10.0213840898 0.5443603427 1
69.3006192744 42.3173183501 0 -0 0
70.2515712678 42.3173183501 0 -0 0
71.2025232613 42.3173183501 10.5878717906 0.926730068 1
72.1534752548 42.3173183501 0 -0 0
73.1044272482 42.3173183501 9.5786459185 1.0755326308 1
74.0553792417 42.3173183501 10.5446808149 0.168516705 1
75.0063312352 42.3173183501 10.1064771292 0.5473993798 1
75.9572832286 42.3173183501 10.2049655362 0.8288504002 1
76.9082352221 42.3173183501 10.0164644834 0.7891169698 1
77.8591872156 42.3173183501 10.393020905 0.7071507066 1
78.810139209 42.3173183501 7.9907777499 5.5517578974 1
79.7610912025 42.3173183501 0 -0 0
80.712043196 42.3173183501 0 -0 0
81.6629951894 42.3173183501 0 -0 0
82.6139471829 42.3173183501 0 -0 0
83.5648991764 42.3173183501 9.9270450477 0.8464199792 1
84.5158511698 42.3173183501 9.7935044455 1.3538095112 1
85.4668031633 42.3173183501 10.4457948639 1.091387025 1
86.4177551568 42.3173183501 0 -0 0
87.3687071502 42.3173183501 10.1297582966 0.0512179471 1
88.3196591437 42.3173183501 0 -0 0
89.2706111372 42.3173183501 10.4432589684 0.88013124 1
90.2215631306 42.3173183501 0 -0 0
91.1725151241 42.3173183501 0 -0 0
92.1234671175 42.3173183501 0 -0 0
93.074419111 42.3173183501 0 -0 0
94.0253711045 42.3173183501 0 -0 0
94.9763230979 42.3173183501 0 -0 0
95.9272750914 42.3173183501 0 -0 0
96.8782270849 42.3173183501 0 -0 0
97.8291790783 42.3173183501 0 -0 0
98.7801310718 42.3173183501 0 -0 0
99.7310830653 42.3173183501 0 -0 0
100.6820350587 42.3173183501 0 -0 0
101.6329870522 42.3173183501 0 -0 0
102.5839390457 42.3173183501 10.3382685438 -0.0688139254 1
103.5348910391 42.3173183501 10.6483108938 0.0350087138 1
104.4858430326 42.3173183501 10.214258126 -0.6115375051 1
105.4367950261 42.3173183501 10.4861688681 -0.1043700386 1
106.3877470195 42.3173183501 10.4808082365 -0.2996922312 1
107.338699013 42.3173183501 10.1856271973 -0.4015333624 1
108.2896510065 42.3173183501 0 -0 0
109.2406029999 42.3173183501 0 -0 0
110.1915549934 42.3173183501 0 -0 0
111.1425069869 42.3173183501 10.3846212362 -0.8449548123 1
112.0934589803 42.3173183501 10.5868639546 -0.1755024528 1
113.0444109738 42.3173183501 10.426986066 -0.4948824268 1
113.9953629673 42.3173183501 0 -0 0
114.9463149607 42.3173183501 0 -0 0
115.8972669542 42.3173183501 10.3907552151 0.2597460527 1
116.8482189476 42.3173183501 9.9983669164 -0.0508180738 1
117.7991709411 42.3173183501 10.3416290325 -0.6550204272 1
118.7501229346 42.3173183501 0 -0 0
119.701074928 42.3173183501 10.0637535782 -0.5446126899 1
120.6520269215 42.3173183501 0 -0 0
121.602978915 42.3173183501 10.3583802299 -0.3559019948 1
122.5539309084 42.3173183501 0 -0 0
123.5048829019 42.3173183501 10.7942328158 -0.7122248271 1
124.4558348954 42.3173183501 10.1629765098 -0.5613336057 1
125.4067868888 42.3173183501 10.0698083589 -0.7568033244 1
126.3577388823 42.3173183501 10.5087077464 -0.3274791555 1
127.3086908758 42.3173183501 10.2375501637 -0.2049463278 1
128.2596428692 42.3173183501 9.6328780562 -0.7875159236 1
129.2105948627 42.3173183501 10.2089021531 -0.4316496457 1
130.1615468562 42.3173183501 10.4332567006 -0.8957068876 1
131.1124988496 42.3173183501 10.7366883295 0.2354026975 1
132.0634508431 42.3173183501 10.2617459928 -0.2630110376 1
133.0144028366 42.3173183501 10.3513284836 -0.1996656708 1
133.96535483 42.3173183501 0 -0 0
134.9163068235 42.3173183501 9.8693949638 0.1591495757 1
135.867258817 42.3173183501 0 -0 0
136.8182108104 42.3173183501 9.5892445022 -0.5614329917 1
137.7691628039 42.3173183501 10.6267379231 0.0095612425 1
138.7201147974 42.3173183501 0 -0 0
139.6710667908 42.3173183501 10.1524602301 -0.4716975396 1
140.6220187843 42.3173183501 10.4776682605 -0.6782099731 1
141.5729707778 42.3173183501 10.3360742875 -0.1877207175 1
142.5239227712 42.3173183501 10.2266425517 -0.5106265647 1
143.4748747647 42.3173183501 9.9693368909 -0.2730855156 1
144.4258267581 42.3173183501 9.8177515205 -0.056781233 1
145.3767787516 42.3173183501 10.0929559763 -0.3543754881 1
146.3277307451 42.3173183501 9.3592668819 0.1446143752 1
147.2786827385 42.3173183501 10.3070380504 0.3958885489 1
148.229634732 42.3173183501 10.5503737684 -0.0905771272 1
149.1805867255 42.3173183501 10.4108109966 -0.2643379958 1
150.1315387189 42.3173183501 10.3595045339 -0.7418736857 1
151.0824907124 42.3173183501 10.3720923903 -0.287821041 1
152.0334427059 42.3173183501 10.2862089216 -0.5072000775 1
152.9843946993 42.3173183501 10.4736586571 -0.3544018875 1
153.9353466928 42.3173183501 9.9952626572 -0.1088726897 1
154.8862986863 42.3173183501 10.7820145511 -1.0557618075 1
155.8372506797 42.3173183501 9.8425778294 -0.4805483276 1
156.7882026732 42.3173183501 10.1930997812 -0.595227333 1
157.7391546667 42.3173183501 9.827163684 -0.2170085255 1
158.6901066601 42.3173183501 10.2185953926 -0.5219783079 1
159.6410586536 42.3173183501 10.5160778385 0.2313822238 1
160.5920106471 42.3173183501 10.0675147166 -0.1990157796 1
161.5429626405 42.3173183501 9.8201740539 0.3675992595 1
162.493914634 42.3173183501 10.3359764545 0.6964845715 1
163.4448666275 42.3173183501 9.7631000981 0.3421688702 1
164.3958186209 42.3173183501 9.9839528425 -0.1248140467 1
165.3467706144 42.3173183501 10.2084254109 -0.0580111346 1
166.2977226079 42.3173183501 0 -0 0
167.2486746013 42.3173183501 9.9985687942 -0.3051033323 1
168.1996265948 42.3173183501 0 -0 0
-22.9417240918 41.3663663566 0 -0 0
-21.9907720983 41.3663663566 9.4257250489 -0.3224228934 1
-21.0398201048 41.3663663566 8.9656238352 -0.1008239777 1
-20.0888681114 41.3663663566 9.0443297721 -0.2508657595 1
-19.1379161179 41.3663663566 8.9510016719 0.45165884 1
-18.1869641244 41.3663663566 9.3106205473 0.4916135596 1
-17.236012131 41.3663663566 0 -0 0
-16.2850601375 41.3663663566 8.6191130397 -0.2219723896 1
-15.334108144 41.3663663566 9.8929152787 0.5315069394 1
-14.3831561506 41.3663663566 9.2615766686 0.5062706633 1
-13.4322041571 41.3663663566 8.978599918 0.3027848436 1
-12.4812521636 41.3663663566 8.9314940662 0.0877050274 1
-11.5303001702 41.3663663566 8.9917452677 0.2334538005 1
-10.5793481767 41.3663663566 9.2407723864 -0.0934779556 1
-9.6283961833 41.3663663566 0 -0 0
-8.6774441898 41.3663663566 9.3666447385 0.4012460748 1
-7.7264921963 41.3663663566 9.1726106815 -0.4106621205 1
-6.7755402029 41.3663663566 9.1316605492 0.3705031938 1
-5.8245882094 41.3663663566 0 -0 0
-4.8736362159 41.3663663566 0 -0 0
-3.9226842225 41.3663663566 0 -0 0
-2.971732229 41.3663663566 0 -0 0
-2.0207802355 41.3663663566 0 -0 0
-1.0698282421 41.3663663566 0 -0 0
-0.1188762486 41.3663663566 0 -0 0
0.8320757449 41.3663663566 0 -0 0
1.7830277383 41.3663663566 0 -0 0
2.7339797318 41.3663663566 0 -0 0
3.6849317253 41.3663663566 0 -0 0
4.6358837187 41.3663663566 0 -0 0
5.5868357122 41.3663663566 0 -0 0
6.5377877057 41.3663663566 0 -0 0
7.4887396991 41.3663663566 0 -0 0
8.4396916926 41.3663663566 0 -0 0
9.3906436861 41.3663663566 0 -0 0
10.3415956795 41.3663663566 0 -0 0
11.292547673 41.3663663566 0 -0 0
12.2434996665 41.3663663566 0 -0 0
13.1944516599 41.3663663566 0 -0 0
14.1454036534 41.3663663566 0 -0 0
15.0963556468 41.3663663566 0 -0 0
16.0473076403 41.3663663566 9.1454192967 0.6655786354 1
16.9982596338 41.3663663566 9.3423184654 1.0386278187 1
17.9492116272 41.3663663566 8.9056412864 0.3831919891 1
18.9001636207 41.3663663566 9.5090865981 0.4547926044 1
19.8511156142 41.3663663566 9.2214387062 0.5842824512 1
20.8020676076 41.3663663566 9.1740440138 0.7723634429 1
21.7530196011 41.3663663566 9.1808597184 0.8075693758 1
22.7039715946 41.3663663566 8.7515293379 1.0474918064 1
23.654923588 41.3663663566 9.4778545518 1.2474897991 1
24.6058755815 41.3663663566 9.4181080448 0.7911404063 1
25.556827575 41.3663663566 9.2963835047 0.3061041803 1
26.5077795684 41.3663663566 9.8396179905 0.9190229953 1
27.4587315619 41.3663663566 9.6627078283 1.0950666359 1
28.4096835554 41.3663663566 9.4347847028 0.5361672104 1
29.3606355488 41.3663663566 9.2892354782 0.6895819041 1
30.3115875423 41.3663663566 9.1605244138 0.6307733523 1
31.2625395358 41.3663663566 10.3535615625 0.6201110994 1
32.2134915292 41.3663663566 9.8973301906 1.1610138968 1
33.1644435227 41.3663663566 10.4121418371 0.9959570665 1
34.1153955162 41.3663663566 9.3376519827 0.1702287839 1
35.0663475096 41.3663663566 10.3049478388 0.7827888776 1
36.0172995031 41.3663663566 9.4866735052 1.0437034921 1
36.9682514966 41.3663663566 9.4729364984 0.773635273 1
37.91920349 41.3663663566 10.3317820552 0.6563838787 1