TITLE = "B00059"
VARIABLES = "x", "y", "Vx", "Vy", "isValid"
ZONE T="Frame 0", I=202, J=155, F=POINT
-22.9417240918 44.219222337 0 -0 0
-21.9907720983 44.219222337 0 -0 0
-21.0398201048 44.219222337 0 -0 0
-20.0888681114 44.219222337 0 -0 0
-19.1379161179 44.219222337 0 -0 0
-18.1869641244 44.219222337 0 -0 0
-17.236012131 44.219222337 0 -0 0
-16.2850601375 44.219222337 0 -0 0
-15.334108144 44.219222337 0 -0 0
-14.3831561506 44.219222337 0 -0 0
-13.4322041571 44.219222337 0 -0 0
-12.4812521636 44.219222337 0 -0 0
-11.5303001702 44.219222337 0 -0 0
-10.5793481767 44.219222337 0 -0 0
-9.6283961833 44.219222337 0 -0 0
-8.6774441898 44.219222337 0 -0 0
-7.7264921963 44.219222337 0 -0 0
-6.7755402029 44.219222337 0 -0 0
-5.8245882094 44.219222337 0 -0 0
-4.8736362159 44.219222337 0 -0 0
-3.9226842225 44.219222337 0 -0 0
-2.971732229 44.219222337 0 -0 0
-2.0207802355 44.219222337 0 -0 0
-1.0698282421 44.219222337 0 -0 0
-0.1188762486 44.219222337 0 -0 0
0.8320757449 44.219222337 0 -0 0
1.7830277383 44.219222337 0 -0 0
2.7339797318 44.219222337 0 -0 0
3.6849317253 44.219222337 0 -0 0
4.6358837187 44.219222337 0 -0 0
5.5868357122 44.219222337 0 -0 0
6.5377877057 44.219222337 0 -0 0
7.4887396991 44.219222337 0 -0 0
8.4396916926 44.219222337 0 -0 0
9.3906436861 44.219222337 0 -0 0
10.3415956795 44.219222337 0 -0 0
11.292547673 44.219222337 0 -0 0
12.2434996665 44.219222337 0 -0 0
13.1944516599 44.219222337 0 -0 0
14.1454036534 44.219222337 0 -0 0
15.0963556468 44.219222337 0 -0 0
16.0473076403 44.219222337 0 -0 0
16.9982596338 44.219222337 0 -0 0
17.9492116272 44.219222337 0 -0 0
18.9001636207 44.219222337 0 -0 0
19.8511156142 44.219222337 0 -0 0
20.8020676076 44.219222337 0 -0 0
21.7530196011 44.219222337 0 -0 0
22.7039715946 44.219222337 0 -0 0
23.654923588 44.219222337 0 -0 0
24.6058755815 44.219222337 0 -0 0
25.556827575 44.219222337 0 -0 0
26.5077795684 44.219222337 0 -0 0
27.4587315619 44.219222337 0 -0 0
28.4096835554 44.219222337 0 -0 0
29.3606355488 44.219222337 0 -0 0
30.3115875423 44.219222337 0 -0 0
31.2625395358 44.219222337 0 -0 0
32.2134915292 44.219222337 0 -0 0
33.1644435227 44.219222337 0 -0 0
34.1153955162 44.219222337 0 -0 0
35.0663475096 44.219222337 0 -0 0
36.0172995031 44.219222337 0 -0 0
36.9682514966 44.219222337 0 -0 0
37.91920349 44.219222337 0 -0 0
38.8701554835 44.219222337 0 -0 0
39.8211074769 44.219222337 0 -0 0
40.7720594704 44.219222337 0 -0 0
41.7230114639 44.219222337 0 -0 0
42.6739634573 44.219222337 0 -0 0
43.6249154508 44.219222337 0 -0 0
44.5758674443 44.219222337 0 -0 0
45.5268194377 44.219222337 0 -0 0
46.4777714312 44.219222337 0 -0 0
47.4287234247 44.219222337 0 -0 0
48.3796754181 44.219222337 0 -0 0
49.3306274116 44.219222337 0 -0 0
50.2815794051 44.219222337 0 -0 0
51.2325313985 44.219222337 0 -0 0
52.183483392 44.219222337 0 -0 0
53.1344353855 44.219222337 0 -0 0
54.0853873789 44.219222337 0 -0 0
55.0363393724 44.219222337 0 -0 0
55.9872913659 44.219222337 0 -0 0
56.9382433593 44.219222337 0 -0 0
57.8891953528 44.219222337 0 -0 0
58.8401473463 44.219222337 0 -0 0
59.7910993397 44.219222337 0 -0 0
60.7420513332 44.219222337 0 -0 0
61.6930033267 44.219222337 0 -0 0
62.6439553201 44.219222337 0 -0 0
63.5949073136 44.219222337 0 -0 0
64.5458593071 44.219222337 0 -0 0
65.4968113005 44.219222337 0 -0 0
66.447763294 44.219222337 0 -0 0
67.3987152874 44.219222337 0 -0 0
68.3496672809 44.219222337 0 -0 0
69.3006192744 44.219222337 0 -0 0
70.2515712678 44.219222337 0 -0 0
71.2025232613 44.219222337 0 -0 0
72.1534752548 44.219222337 0 -0 0
73.1044272482 44.219222337 0 -0 0
74.0553792417 44.219222337 0 -0 0
75.0063312352 44.219222337 0 -0 0
75.9572832286 44.219222337 0 -0 0
76.9082352221 44.219222337 0 -0 0
77.8591872156 44.219222337 0 -0 0
78.810139209 44.219222337 0 -0 0
79.7610912025 44.219222337 0 -0 0
80.712043196 44.219222337 0 -0 0
81.6629951894 44.219222337 0 -0 0
82.6139471829 44.219222337 0 -0 0
83.5648991764 44.219222337 0 -0 0
84.5158511698 44.219222337 0 -0 0
85.4668031633 44.219222337 0 -0 0
86.4177551568 44.219222337 0 -0 0
87.3687071502 44.219222337 0 -0 0
88.3196591437 44.219222337 0 -0 0
89.2706111372 44.219222337 0 -0 0
90.2215631306 44.219222337 0 -0 0
91.1725151241 44.219222337 0 -0 0
92.1234671175 44.219222337 0 -0 0
93.074419111 44.219222337 0 -0 0
94.0253711045 44.219222337 0 -0 0
94.9763230979 44.219222337 0 -0 0
95.9272750914 44.219222337 0 -0 0
96.8782270849 44.219222337 0 -0 0
97.8291790783 44.219222337 0 -0 0
98.7801310718 44.219222337 0 -0 0
99.7310830653 44.219222337 0 -0 0
100.6820350587 44.219222337 0 -0 0
101.6329870522 44.219222337 0 -0 0
102.5839390457 44.219222337 0 -0 0
103.5348910391 44.219222337 0 -0 0
104.4858430326 44.219222337 0 -0 0
105.4367950261 44.219222337 0 -0 0
106.3877470195 44.219222337 0 -0 0
107.338699013 44.219222337 0 -0 0
108.2896510065 44.219222337 0 -0 0
109.2406029999 44.219222337 0 -0 0
110.1915549934 44.219222337 0 -0 0
111.1425069869 44.219222337 0 -0 0
112.0934589803 44.219222337 0 -0 0
113.0444109738 44.219222337 0 -0 0
113.9953629673 44.219222337 0 -0 0
114.9463149607 44.219222337 0 -0 0
115.8972669542 44.219222337 0 -0 0
116.8482189476 44.219222337 0 -0 0
117.7991709411 44.219222337 0 -0 0
118.7501229346 44.219222337 0 -0 0
119.701074928 44.219222337 0 -0 0
120.6520269215 44.219222337 0 -0 0
121.602978915 44.219222337 0 -0 0
122.5539309084 44.219222337 0 -0 0
123.5048829019 44.219222337 0 -0 0
124.4558348954 44.219222337 0 -0 0
125.4067868888 44.219222337 0 -0 0
126.3577388823 44.219222337 0 -0 0
127.3086908758 44.219222337 0 -0 0
128.2596428692 44.219222337 0 -0 0
129.2105948627 44.219222337 0 -0 0
130.1615468562 44.219222337 0 -0 0
131.1124988496 44.219222337 0 -0 0
132.0634508431 44.219222337 0 -0 0
133.0144028366 44.219222337 0 -0 0
133.96535483 44.219222337 0 -0 0
134.9163068235 44.219222337 0 -0 0
135.867258817 44.219222337 0 -0 0
136.8182108104 44.219222337 0 -0 0
137.7691628039 44.219222337 0 -0 0
138.7201147974 44.219222337 0 -0 0
139.6710667908 44.219222337 0 -0 0
140.6220187843 44.219222337 0 -0 0
141.5729707778 44.219222337 0 -0 0
142.5239227712 44.219222337 0 -0 0
143.4748747647 44.219222337 0 -0 0
144.4258267581 44.219222337 0 -0 0
145.3767787516 44.219222337 0 -0 0
146.3277307451 44.219222337 0 -0 0
147.2786827385 44.219222337 0 -0 0
148.229634732 44.219222337 0 -0 0
149.1805867255 44.219222337 0 -0 0
150.1315387189 44.219222337 0 -0 0
151.0824907124 44.219222337 0 -0 0
152.0334427059 44.219222337 0 -0 0
152.9843946993 44.219222337 0 -0 0
153.9353466928 44.219222337 0 -0 0
154.8862986863 44.219222337 0 -0 0
155.8372506797 44.219222337 0 -0 0
156.7882026732 44.219222337 0 -0 0
157.7391546667 44.219222337 0 -0 0
158.6901066601 44.219222337 0 -0 0
159.6410586536 44.219222337 0 -0 0
160.5920106471 44.219222337 0 -0 0
161.5429626405 44.219222337 0 -0 0
162.493914634 44.219222337 0 -0 0
163.4448666275 44.219222337 0 -0 0
164.3958186209 44.219222337 0 -0 0
165.3467706144 44.219222337 0 -0 0
166.2977226079 44.219222337 0 -0 0
167.2486746013 44.219222337 0 -0 0
168.1996265948 44.219222337 0 -0 0
-22.9417240918 43.2682703435 0 -0 0
-21.9907720983 43.2682703435 9.5756006697 -0.3068456929 1
-21.0398201048 43.2682703435 9.6790506115 0.2310118557 1
-20.0888681114 43.2682703435 9.2752313715 0.0603024474 1
-19.1379161179 43.2682703435 9.0783974248 0.0941565756 1
-18.1869641244 43.2682703435 8.3338845753 0.1640528765 1
-17.236012131 43.2682703435 9.068098552 -0.3433273381 1
-16.2850601375 43.2682703435 9.3445080629 -0.1026501952 1
-15.334108144 43.2682703435 8.9300219112 1.6228170955 1
-14.3831561506 43.2682703435 9.395328466 0.323190029 1
-13.4322041571 43.2682703435 9.4651999205 0.4956984789 1
-12.4812521636 43.2682703435 9.1916493096 0.4732131759 1
-11.5303001702 43.2682703435 9.1706928425 0.2266163552 1
-10.5793481767 43.2682703435 9.6377293347 0.3195243943 1
-9.6283961833 43.2682703435 8.9502655944 1.078066197 1
-8.6774441898 43.2682703435 9.537467509 0.5724508601 1
-7.7264921963 43.2682703435 9.5112078678 0.5886344704 1
-6.7755402029 43.2682703435 9.7170952567 0.3638676263 1
-5.8245882094 43.2682703435 0 -0 0
-4.8736362159 43.2682703435 0 -0 0
-3.9226842225 43.2682703435 0 -0 0
-2.971732229 43.2682703435 0 -0 0
-2.0207802355 43.2682703435 0 -0 0
-1.0698282421 43.2682703435 0 -0 0
-0.1188762486 43.2682703435 0 -0 0
0.8320757449 43.2682703435 0 -0 0
1.7830277383 43.2682703435 0 -0 0
2.7339797318 43.2682703435 0 -0 0
3.6849317253 43.2682703435 0 -0 0
4.6358837187 43.2682703435 0 -0 0
5.5868357122 43.2682703435 0 -0 0
6.5377877057 43.2682703435 0 -0 0
7.4887396991 43.2682703435 0 -0 0
8.4396916926 43.2682703435 0 -0 0
9.3906436861 43.2682703435 0 -0 0
10.3415956795 43.2682703435 0 -0 0
11.292547673 43.2682703435 0 -0 0
12.2434996665 43.2682703435 0 -0 0
13.1944516599 43.2682703435 0 -0 0
14.1454036534 43.2682703435 0 -0 0
15.0963556468 43.2682703435 0 -0 0
16.0473076403 43.2682703435 9.5639694035 0.4713287244 1
16.9982596338 43.2682703435 9.9912980881 0.7652340513 1
17.9492116272 43.2682703435 9.3351269575 0.814458067 1
18.9001636207 43.2682703435 8.8250609919 0.7410809272 1
19.8511156142 43.2682703435 9.3852687407 0.6248350396 1
20.8020676076 43.2682703435 9.7483179855 0.8025822181 1
21.7530196011 43.2682703435 0 -0 0
22.7039715946 43.2682703435 9.4997940084 0.8516206615 1
23.654923588 43.2682703435 9.6299694632 0.8734312269 1
24.6058755815 43.2682703435 9.5702214032 0.1320630121 1
25.556827575 43.2682703435 9.5620096361 1.1259182202 1
26.5077795684 43.2682703435 9.0191230012 1.2522044218 1
27.4587315619 43.2682703435 9.4760469692 0.829811649 1
28.4096835554 43.2682703435 9.2499050268 1.1470579302 1
29.3606355488 43.2682703435 0 -0 0
30.3115875423 43.2682703435 0 -0 0
31.2625395358 43.2682703435 9.8045393959 0.6803071728 1
32.2134915292 43.2682703435 9.5485319645 0.0622660971 1
33.1644435227 43.2682703435 9.3893994708 1.4498753848 1
34.1153955162 43.2682703435 9.3738828336 0.6759683533 1
35.0663475096 43.2682703435 9.4575829164 0.8609163571 1
36.0172995031 43.2682703435 10.2854107279 0.8105990955 1
36.9682514966 43.2682703435 10.1132804106 0.6112975812 1
37.91920349 43.2682703435 9.9755857848 0.4959189916 1
38.8701554835 43.2682703435 9.9665463187 0.7784981982 1
39.8211074769 43.2682703435 10.1574621404 0.9635013302 1
40.7720594704 43.2682703435 9.899157961 0.4232957876 1
41.7230114639 43.2682703435 0 -0 0
42.6739634573 43.2682703435 0 -0 0
43.6249154508 43.2682703435 10.2292762803 1.1868076661 1
44.5758674443 43.2682703435 0 -0 0
45.5268194377 43.2682703435 10.6574031587 0.8806964978 1
46.4777714312 43.2682703435 9.8984948701 0.8418132834 1
47.4287234247 43.2682703435 9.6430138739 0.6519355794 1
48.3796754181 43.2682703435 10.4840569159 0.6134794141 1
49.3306274116 43.2682703435 9.7518648229 0.7349873239 1
50.2815794051 43.2682703435 9.9587119077 0.1872952213 1
51.2325313985 43.2682703435 9.9470744298 0.8171601235 1
52.183483392 43.2682703435 9.3801332804 1.0044592271 1
53.1344353855 43.2682703435 0 -0 0
54.0853873789 43.2682703435 10.5955307232 0.9199857971 1
55.0363393724 43.2682703435 0 -0 0
55.9872913659 43.2682703435 10.1774930754 0.7041986322 1
56.9382433593 43.2682703435 9.1133766334 0.6586697564 1
57.8891953528 43.2682703435 10.6173148892 0.7792241818 1
58.8401473463 43.2682703435 9.6722550947 0.470699021 1
59.7910993397 43.2682703435 10.0738490204 1.0952351262 1
60.7420513332 43.2682703435 9.5289637955 0.5526792603 1
61.6930033267 43.2682703435 10.0350341339 0.5370842014 1
62.6439553201 43.2682703435 10.0876419319 0.7966508934 1
63.5949073136 43.2682703435 10.2070091606 1.3094437621 1
64.5458593071 43.2682703435 10.5062743427 0.8684153403 1
65.4968113005 43.2682703435 0 -0 0
66.447763294 43.2682703435 10.3617376128 0.3171492245 1
67.3987152874 43.2682703435 9.5715041036 0.8569044243 1
68.3496672809 43.2682703435 10.1916214146 0.3284334163 1
69.3006192744 43.2682703435 0 -0 0
70.2515712678 43.2682703435 9.5597268642 1.1037520394 1
71.2025232613 43.2682703435 10.0056748922 0.2976439482 1
72.1534752548 43.2682703435 0 -0 0
73.1044272482 43.2682703435 0 -0 0
74.0553792417 43.2682703435 9.7170766218 0.5797301071 1
75.0063312352 43.2682703435 10.1702642978 0.3634685295 1
75.9572832286 43.2682703435 0 -0 0
76.9082352221 43.2682703435 10.2082887552 -0.166300708 1
77.8591872156 43.2682703435 10.5239914477 0.5291007115 1
78.810139209 43.2682703435 0 -0 0
79.7610912025 43.2682703435 9.4975516121 1.1138210822 1
80.712043196 43.2682703435 9.1811004188 0.8047935563 1
81.6629951894 43.2682703435 0 -0 0
82.6139471829 43.2682703435 9.4244097375 1.2501087751 1
83.5648991764 43.2682703435 10.2713212114 0.618588475 1
84.5158511698 43.2682703435 0 -0 0
85.4668031633 43.2682703435 0 -0 0
86.4177551568 43.2682703435 9.2375749529 -0.3358136022 1
87.3687071502 43.2682703435 0 -0 0
88.3196591437 43.2682703435 2.4550574896 2.5041782371 1
89.2706111372 43.2682703435 3.0106934831 2.1534567369 1
90.2215631306 43.2682703435 3.391442751 1.9411876806 1
91.1725151241 43.2682703435 2.0871756012 0.1119482201 1
92.1234671175 43.2682703435 0 -0 0
93.074419111 43.2682703435 0 -0 0
94.0253711045 43.2682703435 0 -0 0
94.9763230979 43.2682703435 0 -0 0
95.9272750914 43.2682703435 0 -0 0
96.8782270849 43.2682703435 0 -0 0
97.8291790783 43.2682703435 0 -0 0
98.7801310718 43.2682703435 0 -0 0
99.7310830653 43.2682703435 0 -0 0
100.6820350587 43.2682703435 0 -0 0
101.6329870522 43.2682703435 10.512417639 0.3339011984 1
102.5839390457 43.2682703435 10.3399581056 0.2710713964 1
103.5348910391 43.2682703435 0 -0 0
104.4858430326 43.2682703435 0 -0 0
105.4367950261 43.2682703435 0 -0 0
106.3877470195 43.2682703435 0 -0 0
107.338699013 43.2682703435 10.1036151234 -0.1350438152 1
108.2896510065 43.2682703435 5.402296126 -3.0268437059 1
109.2406029999 43.2682703435 10.5465722544 -0.5491836688 1
110.1915549934 43.2682703435 10.0600374741 -1.0866405677 1
111.1425069869 43.2682703435 5.0656820007 -4.8668292762 1
112.0934589803 43.2682703435 -3.9171379395 -2.9205814513 1
113.0444109738 43.2682703435 10.5500787163 -0.1032612637 1
113.9953629673 43.2682703435 10.593682765 0.6139631444 1
114.9463149607 43.2682703435 0 -0 0
115.8972669542 43.2682703435 0 -0 0
116.8482189476 43.2682703435 10.0315928941 -0.3536751275 1
117.7991709411 43.2682703435 0 -0 0
118.7501229346 43.2682703435 0 -0 0
119.701074928 43.2682703435 0 -0 0
120.6520269215 43.2682703435 0 -0 0
121.602978915 43.2682703435 10.2653394173 -0.2365549538 1
122.5539309084 43.2682703435 0 -0 0
123.5048829019 43.2682703435 0 -0 0
124.4558348954 43.2682703435 6.8661973582 -0.078414767 1
125.4067868888 43.2682703435 0 -0 0
126.3577388823 43.2682703435 3.17818527 -9.9228413311 1
127.3086908758 43.2682703435 4.2538770737 4.0564600108 1
128.2596428692 43.2682703435 5.3785910153 0.0080386181 1
129.2105948627 43.2682703435 4.5090800997 0.4904713972 1
130.1615468562 43.2682703435 0 -0 0
131.1124988496 43.2682703435 0 -0 0
132.0634508431 43.2682703435 0 -0 0
133.0144028366 43.2682703435 0 -0 0
133.96535483 43.2682703435 0 -0 0
134.9163068235 43.2682703435 0 -0 0
135.867258817 43.2682703435 10.5867971797 -0.1666687468 1
136.8182108104 43.2682703435 10.8382577021 -0.0080921934 1
137.7691628039 43.2682703435 10.4784136554 -0.7146473605 1
138.7201147974 43.2682703435 10.1938234354 -0.1588591823 1
139.6710667908 43.2682703435 0 -0 0
140.6220187843 43.2682703435 10.3454600517 -0.721738706 1
141.5729707778 43.2682703435 0 -0 0
142.5239227712 43.2682703435 0 -0 0
143.4748747647 43.2682703435 0 -0 0
144.4258267581 43.2682703435 10.2347145573 -0.371310705 1
145.3767787516 43.2682703435 10.2617941328 -0.3921320692 1
146.3277307451 43.2682703435 0 -0 0
147.2786827385 43.2682703435 0 -0 0
148.229634732 43.2682703435 10.5223344969 -0.055077695 1
149.1805867255 43.2682703435 0 -0 0
150.1315387189 43.2682703435 9.9305204514 -0.7987574105 1
151.0824907124 43.2682703435 0 -0 0
152.0334427059 43.2682703435 0 -0 0
152.9843946993 43.2682703435 0 -0 0
153.9353466928 43.2682703435 0 -0 0
154.8862986863 43.2682703435 10.2898334043 0.0803753109 1
155.8372506797 43.2682703435 10.1934522908 -0.3581311914 1
156.7882026732 43.2682703435 10.4812865315 -0.6665251316 1
157.7391546667 43.2682703435 9.9899455069 -0.6044989585 1
158.6901066601 43.2682703435 9.991894404 -0.0293716649 1
159.6410586536 43.2682703435 9.6492223923 -0.8161243352 1
160.5920106471 43.2682703435 10.6316777172 -0.5597628413 1
161.5429626405 43.2682703435 10.3714075587 -0.2730831862 1
162.493914634 43.2682703435 10.6269382479 -0.6068329763 1
163.4448666275 43.2682703435 10.1710081398 -0.3534623794 1
164.3958186209 43.2682703435 10.082813947 -0.3234020007 1
165.3467706144 43.2682703435 10.2475990187 -0.7880532291 1
166.2977226079 43.2682703435 9.5234463203 -0.4400943487 1
167.2486746013 43.2682703435 10.1158986102 -0.2132520458 1
168.1996265948 43.2682703435 0 -0 0
-22.9417240918 42.3173183501 0 -0 0
-21.9907720983 42.3173183501 9.2647880783 0.2001369778 1
-21.0398201048 42.3173183501 9.6874813384 0.1555965267 1
-20.0888681114 42.3173183501 9.0254526462 -0.2142032007 1
-19.1379161179 42.3173183501 9.0334097368 0.9551622248 1
-18.1869641244 42.3173183501 9.3571362948 -0.3510320814 1
-17.236012131 42.3173183501 9.2727622509 0.3851175926 1
-16.2850601375 42.3173183501 9.3573894185 0.0554022524 1
-15.334108144 42.3173183501 9.4363251855 0.8507122115 1
-14.3831561506 42.3173183501 0 -0 0
-13.4322041571 42.3173183501 9.8387514689 0.6416390359 1
-12.4812521636 42.3173183501 9.1348346891 0.6068058004 1
-11.5303001702 42.3173183501 9.233192652 0.5175074914 1
-10.5793481767 42.3173183501 9.6567881505 0.8780511223 1
-9.6283961833 42.3173183501 9.4486832118 0.0213074238 1
-8.6774441898 42.3173183501 9.6283063008 0.5158288 1
-7.7264921963 42.3173183501 9.3493391536 0.4763205409 1
-6.7755402029 42.3173183501 9.612750841 0.3978630689 1
-5.8245882094 42.3173183501 0 -0 0
-4.8736362159 42.3173183501 0 -0 0
-3.9226842225 42.3173183501 0 -0 0
-2.971732229 42.3173183501 0 -0 0
-2.0207802355 42.3173183501 0 -0 0
-1.0698282421 42.3173183501 0 -0 0
-0.1188762486 42.3173183501 0 -0 0
0.8320757449 42.3173183501 0 -0 0
1.7830277383 42.3173183501 0 -0 0
2.7339797318 42.3173183501 0 -0 0
3.6849317253 42.3173183501 0 -0 0
4.6358837187 42.3173183501 0 -0 0
5.5868357122 42.3173183501 0 -0 0
6.5377877057 42.3173183501 0 -0 0
7.4887396991 42.3173183501 0 -0 0
8.4396916926 42.3173183501 0 -0 0
9.3906436861 42.3173183501 0 -0 0
10.3415956795 42.3173183501 0 -0 0
11.292547673 42.3173183501 0 -0 0
12.2434996665 42.3173183501 0 -0 0
13.1944516599 42.3173183501 0 -0 0
14.1454036534 42.3173183501 0 -0 0
15.0963556468 42.3173183501 0 -0 0
16.0473076403 42.3173183501 9.1946681589 0.1925828663 1
16.9982596338 42.3173183501 9.7644387032 0.6130601295 1
17.9492116272 42.3173183501 9.2259390279 0.5537849294 1
18.9001636207 42.3173183501 9.11716883 0.7608897966 1
19.8511156142 42.3173183501 9.2178375171 0.7284107668 1
20.8020676076 42.3173183501 9.4028554016 0.3194009383 1
21.7530196011 42.3173183501 0 -0 0
22.7039715946 42.3173183501 9.7262977779 0.6520776703 1
23.654923588 42.3173183501 9.6034862035 0.3917733479 1
24.6058755815 42.3173183501 9.2078787306 0.5064212952 1
25.556827575 42.3173183501 10.1309835395 1.1709276489 1
26.5077795684 42.3173183501 8.8297057338 0.6284789336 1
27.4587315619 42.3173183501 0 -0 0
28.4096835554 42.3173183501 0 -0 0
29.3606355488 42.3173183501 0 -0 0
30.3115875423 42.3173183501 10.3087897284 1.0421335041 1
31.2625395358 42.3173183501 9.52806311 0.9763120286 1
32.2134915292 42.3173183501 9.5713363897 -0.5126857181 1
33.1644435227 42.3173183501 9.908497138 0.6874862574 1
34.1153955162 42.3173183501 9.3158491819 0.3901288204 1
35.0663475096 42.3173183501 9.5572530848 1.1075349185 1
36.0172995031 42.3173183501 9.6361158653 0.8402215547 1
36.9682514966 42.3173183501 10.1354807554 0.8506019551 1
37.91920349 42.3173183501 9.38719745 0.5020444295 1
38.8701554835 42.3173183501 9.4251333917 0.9018882301 1
39.8211074769 42.3173183501 9.3846149673 0.5645884968 1
40.7720594704 42.3173183501 10.2160377563 0.8254681708 1
41.7230114639 42.3173183501 0 -0 0
42.6739634573 42.3173183501 0 -0 0
43.6249154508 42.3173183501 0 -0 0
44.5758674443 42.3173183501 10.2275106262 1.0008370737 1
45.5268194377 42.3173183501 10.121190914 0.6947111528 1
46.4777714312 42.3173183501 10.2166496013 1.0154770954 1
47.4287234247 42.3173183501 10.5660845189 1.3159077335 1
48.3796754181 42.3173183501 9.7068041483 0.9249558729 1
49.3306274116 42.3173183501 9.2729781048 0.9872514752 1
50.2815794051 42.3173183501 10.0920413147 0.5384779346 1
51.2325313985 42.3173183501 9.8039508445 1.1866415052 1
52.183483392 42.3173183501 9.8719572588 1.0146858898 1
53.1344353855 42.3173183501 0 -0 0
54.0853873789 42.3173183501 10.6203958548 1.1280006672 1
55.0363393724 42.3173183501 0 -0 0
55.9872913659 42.3173183501 10.5049093382 1.3084592196 1
56.9382433593 42.3173183501 8.8168430131 0.9379226383 1
57.8891953528 42.3173183501 10.611120347 0.5865691053 1
58.8401473463 42.3173183501 9.7150593968 0.3829955465 1
59.7910993397 42.3173183501 10.0129238576 0.8730693998 1
60.7420513332 42.3173183501 9.7396931454 1.1981764913 1
61.6930033267 42.3173183501 10.3647828615 0.8615227669 1
62.6439553201 42.3173183501 10.6407296065 0.9696376384 1
63.5949073136 42.3173183501 10.4587072777 0.7752386485 1
64.5458593071 42.3173183501 10.4748963232 0.5041315352 1
65.4968113005 42.3173183501 9.3559654037 0.4712805843 1
66.447763294 42.3173183501 10.1143348338 -0.1680523861 1
67.3987152874 42.3173183501 9.1876878463 0.5888347953 1
68.3496672809 42.3173183501 9.7516613922 0.246336709 1
69.3006192744 42.3173183501 10.2960931686 0.9138502653 1
70.2515712678 42.3173183501 10.0478797727 1.0422095965 1
71.2025232613 42.3173183501 9.1413677648 0.3605622658 1
72.1534752548 42.3173183501 0 -0 0
73.1044272482 42.3173183501 9.5083567323 1.8792709874 1
74.0553792417 42.3173183501 9.7863579719 0.6493103917 1
75.0063312352 42.3173183501 10.8066187944 -0.1189184389 1
75.9572832286 42.3173183501 0 -0 0
76.9082352221 42.3173183501 9.7808420497 0.561774631 1
77.8591872156 42.3173183501 10.0613077512 0.3153261128 1
78.810139209 42.3173183501 9.5025007236 0.7198061144 1
79.7610912025 42.3173183501 10.8949356668 0.0954330644 1
80.712043196 42.3173183501 9.5875192236 0.9725120675 1
81.6629951894 42.3173183501 10.6600430989 0.522761749 1
82.6139471829 42.3173183501 0 -0 0
83.5648991764 42.3173183501 10.4314584354 0.4470971785 1
84.5158511698 42.3173183501 0 -0 0
85.4668031633 42.3173183501 0 -0 0
86.4177551568 42.3173183501 10.3401724066 0.0723071876 1
87.3687071502 42.3173183501 10.0307884888 2.8456521818 1
88.3196591437 42.3173183501 3.5700253929 2.5669862984 1
89.2706111372 42.3173183501 3.2684510395 2.1270301583 1
90.2215631306 42.3173183501 3.6371249101 1.9486820052 1
91.1725151241 42.3173183501 2.0574607441 0.462187543 1
92.1234671175 42.3173183501 0 -0 0
93.074419111 42.3173183501 0 -0 0
94.0253711045 42.3173183501 0 -0 0
94.9763230979 42.3173183501 0 -0 0
95.9272750914 42.3173183501 0 -0 0
96.8782270849 42.3173183501 0 -0 0
97.8291790783 42.3173183501 0 -0 0
98.7801310718 42.3173183501 0 -0 0
99.7310830653 42.3173183501 0 -0 0
100.6820350587 42.3173183501 0 -0 0
101.6329870522 42.3173183501 -9.1446343027 0.0137789353 1
102.5839390457 42.3173183501 9.7589352041 0.2324871165 1
103.5348910391 42.3173183501 0 -0 0
104.4858430326 42.3173183501 10.5590514074 -0.1076474468 1
105.4367950261 42.3173183501 10.4406097107 -0.0183320558 1
106.3877470195 42.3173183501 0 -0 0
107.338699013 42.3173183501 10.4206144925 0.0516022913 1
108.2896510065 42.3173183501 1.6436889292 0.9978531648 1
109.2406029999 42.3173183501 3.0488452787 -4.7077293935 1
110.1915549934 42.3173183501 5.8463061274 -4.0566378186 1
111.1425069869 42.3173183501 6.1764415286 -3.7426759337 1
112.0934589803 42.3173183501 5.2879370193 -2.9846776482 1
113.0444109738 42.3173183501 -2.100028228 1.1298781306 1
113.9953629673 42.3173183501 0.8452894636 -1.8095113422 1
114.9463149607 42.3173183501 10.447678539 -0.4105169238 1
115.8972669542 42.3173183501 0 -0 0
116.8482189476 42.3173183501 10.1522661168 -0.7412276768 1
117.7991709411 42.3173183501 10.5775061428 0.3836912484 1
118.7501229346 42.3173183501 9.6802199498 0.0950518259 1
119.701074928 42.3173183501 0 -0 0
120.6520269215 42.3173183501 0 -0 0
121.602978915 42.3173183501 10.466602252 -0.1897162018 1
122.5539309084 42.3173183501 0 -0 0
123.5048829019 42.3173183501 10.7165781963 0.0731698269 1
124.4558348954 42.3173183501 2.2520026014 -6.704047568 1
125.4067868888 42.3173183501 3.6030199876 6.3620728111 1
126.3577388823 42.3173183501 3.9602535993 6.5274378932 1
127.3086908758 42.3173183501 3.3645883468 3.1245393544 1
128.2596428692 42.3173183501 4.9469048763 0.2960413491 1
129.2105948627 42.3173183501 4.0304884337 0.2427293083 1
130.1615468562 42.3173183501 2.8786359062 1.466425481 1
131.1124988496 42.3173183501 0 -0 0
132.0634508431 42.3173183501 0 -0 0
133.0144028366 42.3173183501 0 -0 0
133.96535483 42.3173183501 0 -0 0
134.9163068235 42.3173183501 0 -0 0
135.867258817 42.3173183501 10.5757637822 -0.2705806781 1
136.8182108104 42.3173183501 0 -0 0
137.7691628039 42.3173183501 0 -0 0
138.7201147974 42.3173183501 10.3860110871 -0.2846445717 1
139.6710667908 42.3173183501 10.5409802398 -1.5030189354 1
140.6220187843 42.3173183501 10.3776642172 -0.858379685 1
141.5729707778 42.3173183501 0 -0 0
142.5239227712 42.3173183501 0 -0 0
143.4748747647 42.3173183501 0 -0 0
144.4258267581 42.3173183501 10.3789810815 -0.5266152853 1
145.3767787516 42.3173183501 0 -0 0
146.3277307451 42.3173183501 0 -0 0
147.2786827385 42.3173183501 10.0653375424 -0.6744216589 1
148.229634732 42.3173183501 10.2561260258 -0.6705137708 1
149.1805867255 42.3173183501 0 -0 0
150.1315387189 42.3173183501 10.5791009773 -0.7083775024 1
151.0824907124 42.3173183501 10.1268015635 -0.684229037 1
152.0334427059 42.3173183501 0 -0 0
152.9843946993 42.3173183501 0 -0 0
153.9353466928 42.3173183501 10.2152970201 -1.0324247355 1
154.8862986863 42.3173183501 10.416870436 0.4487533528 1
155.8372506797 42.3173183501 9.814321151 -0.4822604065 1
156.7882026732 42.3173183501 10.4584168843 -0.808896334 1
157.7391546667 42.3173183501 10.299970775 -0.6981368635 1
158.6901066601 42.3173183501 10.3408308388 -0.1536810171 1
159.6410586536 42.3173183501 0 -0 0
160.5920106471 42.3173183501 10.1369094289 -0.751165499 1
161.5429626405 42.3173183501 10.5851604167 -0.7399969987 1
162.493914634 42.3173183501 10.7005925815 -1.0363900811 1
163.4448666275 42.3173183501 10.1283249643 -0.5668549631 1
164.3958186209 42.3173183501 10.021727282 -0.4794954573 1
165.3467706144 42.3173183501 10.3605092641 -0.658081205 1
166.2977226079 42.3173183501 10.020488063 -0.5800725229 1
167.2486746013 42.3173183501 10.2771026806 0.1603049378 1
168.1996265948 42.3173183501 0 -0 0
-22.9417240918 41.3663663566 0 -0 0
-21.9907720983 41.3663663566 9.3991361917 -0.2845257744 1
-21.0398201048 41.3663663566 9.5785993313 0.2832780144 1
-20.0888681114 41.3663663566 8.983162356 0.3398503815 1
-19.1379161179 41.3663663566 0 -0 0
-18.1869641244 41.3663663566 9.1667034269 0.3585652286 1
-17.236012131 41.3663663566 8.9108140164 -0.2082773113 1
-16.2850601375 41.3663663566 9.709388184 0.3930257666 1
-15.334108144 41.3663663566 9.7233441506 0.8871534811 1
-14.3831561506 41.3663663566 0 -0 0
-13.4322041571 41.3663663566 9.9588252699 0.5860481054 1
-12.4812521636 41.3663663566 9.5380498487 0.5523640204 1
-11.5303001702 41.3663663566 9.5162718944 0.8573998013 1
-10.5793481767 41.3663663566 9.2593311665 1.079660255 1
-9.6283961833 41.3663663566 9.107269054 -0.2002681983 1
-8.6774441898 41.3663663566 9.3910300221 0.4744648182 1
-7.7264921963 41.3663663566 8.823174211 0.1645769823 1
-6.7755402029 41.3663663566 9.2022183881 0.6320381943 1
-5.8245882094 41.3663663566 0 -0 0
-4.8736362159 41.3663663566 0 -0 0
-3.9226842225 41.3663663566 0 -0 0
-2.971732229 41.3663663566 0 -0 0
-2.0207802355 41.3663663566 0 -0 0
-1.0698282421 41.3663663566 0 -0 0
-0.1188762486 41.3663663566 0 -0 0
0.8320757449 41.3663663566 0 -0 0
1.7830277383 41.3663663566 0 -0 0
2.7339797318 41.3663663566 0 -0 0
3.6849317253 41.3663663566 0 -0 0
4.6358837187 41.3663663566 0 -0 0
5.5868357122 41.3663663566 0 -0 0
6.5377877057 41.3663663566 0 -0 0
7.4887396991 41.3663663566 0 -0 0
8.4396916926 41.3663663566 0 -0 0
9.3906436861 41.3663663566 0 -0 0
10.3415956795 41.3663663566 0 -0 0
11.292547673 41.3663663566 0 -0 0
12.2434996665 41.3663663566 0 -0 0
13.1944516599 41.3663663566 0 -0 0
14.1454036534 41.3663663566 0 -0 0
15.0963556468 41.3663663566 0 -0 0
16.0473076403 41.3663663566 9.227706235 0.1338418659 1
16.9982596338 41.3663663566 9.9642713114 0.7964971557 1
17.9492116272 41.3663663566 9.3824905918 0.5658719736 1
18.9001636207 41.3663663566 9.4273245421 0.5512676687 1
19.8511156142 41.3663663566 8.5376351655 0.3454299729 1
20.8020676076 41.3663663566 9.3936528804 0.620151475 1
21.7530196011 41.3663663566 9.1732753253 0.3156755167 1
22.7039715946 41.3663663566 9.845890178 0.7391219362 1
23.654923588 41.3663663566 10.1065920443 0.4966915624 1
24.6058755815 41.3663663566 9.4720249425 0.8646347906 1
25.556827575 41.3663663566 9.9584743131 0.7010656443 1
26.5077795684 41.3663663566 9.386321611 0.730159339 1
27.4587315619 41.3663663566 0 -0 0
28.4096835554 41.3663663566 0 -0 0
29.3606355488 41.3663663566 10.3592964445 0.6792698315 1
30.3115875423 41.3663663566 9.7473039379 1.0707302689 1
31.2625395358 41.3663663566 0 -0 0
32.2134915292 41.3663663566 9.7170300346 0.6164299356 1
33.1644435227 41.3663663566 9.7819663537 0.4454922502 1
34.1153955162 41.3663663566 9.4688368264 0.5921393793 1
35.0663475096 41.3663663566 9.9281941982 0.590615202 1
36.0172995031 41.3663663566 9.8655189103 0.6210389608 1
36.9682514966 41.3663663566 9.1805817482 0.8427939436 1
37.91920349 41.3663663566 9.5396804001 0.7762309554 1
38.8701554835 41.3663663566 9.437822187 0.2816963796 1
39.8211074769 41.3663663566 10.2821993182 0.7422921939 1
40.7720594704 41.3663663566 9.4489472059 0.9999185298 1
41.7230114639 41.3663663566 9.4563235096 0.9459884323 1
42.6739634573 41.3663663566 9.9316292264 0.4578254299 1
43.6249154508 41.3663663566 9.4974475674 1.3526751134 1