TITLE = "B00026"
VARIABLES = "x", "y", "Vx", "Vy", "isValid"
ZONE T="Frame 0", I=202, J=155, F=POINT
-22.9417240918 44.219222337 0 -0 0
-21.9907720983 44.219222337 0 -0 0
-21.0398201048 44.219222337 0 -0 0
-20.0888681114 44.219222337 0 -0 0
-19.1379161179 44.219222337 0 -0 0
-18.1869641244 44.219222337 0 -0 0
-17.236012131 44.219222337 0 -0 0
-16.2850601375 44.219222337 0 -0 0
-15.334108144 44.219222337 0 -0 0
-14.3831561506 44.219222337 0 -0 0
-13.4322041571 44.219222337 0 -0 0
-12.4812521636 44.219222337 0 -0 0
-11.5303001702 44.219222337 0 -0 0
-10.5793481767 44.219222337 0 -0 0
-9.6283961833 44.219222337 0 -0 0
-8.6774441898 44.219222337 0 -0 0
-7.7264921963 44.219222337 0 -0 0
-6.7755402029 44.219222337 0 -0 0
-5.8245882094 44.219222337 0 -0 0
-4.8736362159 44.219222337 0 -0 0
-3.9226842225 44.219222337 0 -0 0
-2.971732229 44.219222337 0 -0 0
-2.0207802355 44.219222337 0 -0 0
-1.0698282421 44.219222337 0 -0 0
-0.1188762486 44.219222337 0 -0 0
0.8320757449 44.219222337 0 -0 0
1.7830277383 44.219222337 0 -0 0
2.7339797318 44.219222337 0 -0 0
3.6849317253 44.219222337 0 -0 0
4.6358837187 44.219222337 0 -0 0
5.5868357122 44.219222337 0 -0 0
6.5377877057 44.219222337 0 -0 0
7.4887396991 44.219222337 0 -0 0
8.4396916926 44.219222337 0 -0 0
9.3906436861 44.219222337 0 -0 0
10.3415956795 44.219222337 0 -0 0
11.292547673 44.219222337 0 -0 0
12.2434996665 44.219222337 0 -0 0
13.1944516599 44.219222337 0 -0 0
14.1454036534 44.219222337 0 -0 0
15.0963556468 44.219222337 0 -0 0
16.0473076403 44.219222337 0 -0 0
16.9982596338 44.219222337 0 -0 0
17.9492116272 44.219222337 0 -0 0
18.9001636207 44.219222337 0 -0 0
19.8511156142 44.219222337 0 -0 0
20.8020676076 44.219222337 0 -0 0
21.7530196011 44.219222337 0 -0 0
22.7039715946 44.219222337 0 -0 0
23.654923588 44.219222337 0 -0 0
24.6058755815 44.219222337 0 -0 0
25.556827575 44.219222337 0 -0 0
26.5077795684 44.219222337 0 -0 0
27.4587315619 44.219222337 0 -0 0
28.4096835554 44.219222337 0 -0 0
29.3606355488 44.219222337 0 -0 0
30.3115875423 44.219222337 0 -0 0
31.2625395358 44.219222337 0 -0 0
32.2134915292 44.219222337 0 -0 0
33.1644435227 44.219222337 0 -0 0
34.1153955162 44.219222337 0 -0 0
35.0663475096 44.219222337 0 -0 0
36.0172995031 44.219222337 0 -0 0
36.9682514966 44.219222337 0 -0 0
37.91920349 44.219222337 0 -0 0
38.8701554835 44.219222337 0 -0 0
39.8211074769 44.219222337 0 -0 0
40.7720594704 44.219222337 0 -0 0
41.7230114639 44.219222337 0 -0 0
42.6739634573 44.219222337 0 -0 0
43.6249154508 44.219222337 0 -0 0
44.5758674443 44.219222337 0 -0 0
45.5268194377 44.219222337 0 -0 0
46.4777714312 44.219222337 0 -0 0
47.4287234247 44.219222337 0 -0 0
48.3796754181 44.219222337 0 -0 0
49.3306274116 44.219222337 0 -0 0
50.2815794051 44.219222337 0 -0 0
51.2325313985 44.219222337 0 -0 0
52.183483392 44.219222337 0 -0 0
53.1344353855 44.219222337 0 -0 0
54.0853873789 44.219222337 0 -0 0
55.0363393724 44.219222337 0 -0 0
55.9872913659 44.219222337 0 -0 0
56.9382433593 44.219222337 0 -0 0
57.8891953528 44.219222337 0 -0 0
58.8401473463 44.219222337 0 -0 0
59.7910993397 44.219222337 0 -0 0
60.7420513332 44.219222337 0 -0 0
61.6930033267 44.219222337 0 -0 0
62.6439553201 44.219222337 0 -0 0
63.5949073136 44.219222337 0 -0 0
64.5458593071 44.219222337 0 -0 0
65.4968113005 44.219222337 0 -0 0
66.447763294 44.219222337 0 -0 0
67.3987152874 44.219222337 0 -0 0
68.3496672809 44.219222337 0 -0 0
69.3006192744 44.219222337 0 -0 0
70.2515712678 44.219222337 0 -0 0
71.2025232613 44.219222337 0 -0 0
72.1534752548 44.219222337 0 -0 0
73.1044272482 44.219222337 0 -0 0
74.0553792417 44.219222337 0 -0 0
75.0063312352 44.219222337 0 -0 0
75.9572832286 44.219222337 0 -0 0
76.9082352221 44.219222337 0 -0 0
77.8591872156 44.219222337 0 -0 0
78.810139209 44.219222337 0 -0 0
79.7610912025 44.219222337 0 -0 0
80.712043196 44.219222337 0 -0 0
81.6629951894 44.219222337 0 -0 0
82.6139471829 44.219222337 0 -0 0
83.5648991764 44.219222337 0 -0 0
84.5158511698 44.219222337 0 -0 0
85.4668031633 44.219222337 0 -0 0
86.4177551568 44.219222337 0 -0 0
87.3687071502 44.219222337 0 -0 0
88.3196591437 44.219222337 0 -0 0
89.2706111372 44.219222337 0 -0 0
90.2215631306 44.219222337 0 -0 0
91.1725151241 44.219222337 0 -0 0
92.1234671175 44.219222337 0 -0 0
93.074419111 44.219222337 0 -0 0
94.0253711045 44.219222337 0 -0 0
94.9763230979 44.219222337 0 -0 0
95.9272750914 44.219222337 0 -0 0
96.8782270849 44.219222337 0 -0 0
97.8291790783 44.219222337 0 -0 0
98.7801310718 44.219222337 0 -0 0
99.7310830653 44.219222337 0 -0 0
100.6820350587 44.219222337 0 -0 0
101.6329870522 44.219222337 0 -0 0
102.5839390457 44.219222337 0 -0 0
103.5348910391 44.219222337 0 -0 0
104.4858430326 44.219222337 0 -0 0
105.4367950261 44.219222337 0 -0 0
106.3877470195 44.219222337 0 -0 0
107.338699013 44.219222337 0 -0 0
108.2896510065 44.219222337 0 -0 0
109.2406029999 44.219222337 0 -0 0
110.1915549934 44.219222337 0 -0 0
111.1425069869 44.219222337 0 -0 0
112.0934589803 44.219222337 0 -0 0
113.0444109738 44.219222337 0 -0 0
113.9953629673 44.219222337 0 -0 0
114.9463149607 44.219222337 0 -0 0
115.8972669542 44.219222337 0 -0 0
116.8482189476 44.219222337 0 -0 0
117.7991709411 44.219222337 0 -0 0
118.7501229346 44.219222337 0 -0 0
119.701074928 44.219222337 0 -0 0
120.6520269215 44.219222337 0 -0 0
121.602978915 44.219222337 0 -0 0
122.5539309084 44.219222337 0 -0 0
123.5048829019 44.219222337 0 -0 0
124.4558348954 44.219222337 0 -0 0
125.4067868888 44.219222337 0 -0 0
126.3577388823 44.219222337 0 -0 0
127.3086908758 44.219222337 0 -0 0
128.2596428692 44.219222337 0 -0 0
129.2105948627 44.219222337 0 -0 0
130.1615468562 44.219222337 0 -0 0
131.1124988496 44.219222337 0 -0 0
132.0634508431 44.219222337 0 -0 0
133.0144028366 44.219222337 0 -0 0
133.96535483 44.219222337 0 -0 0
134.9163068235 44.219222337 0 -0 0
135.867258817 44.219222337 0 -0 0
136.8182108104 44.219222337 0 -0 0
137.7691628039 44.219222337 0 -0 0
138.7201147974 44.219222337 0 -0 0
139.6710667908 44.219222337 0 -0 0
140.6220187843 44.219222337 0 -0 0
141.5729707778 44.219222337 0 -0 0
142.5239227712 44.219222337 0 -0 0
143.4748747647 44.219222337 0 -0 0
144.4258267581 44.219222337 0 -0 0
145.3767787516 44.219222337 0 -0 0
146.3277307451 44.219222337 0 -0 0
147.2786827385 44.219222337 0 -0 0
148.229634732 44.219222337 0 -0 0
149.1805867255 44.219222337 0 -0 0
150.1315387189 44.219222337 0 -0 0
151.0824907124 44.219222337 0 -0 0
152.0334427059 44.219222337 0 -0 0
152.9843946993 44.219222337 0 -0 0
153.9353466928 44.219222337 0 -0 0
154.8862986863 44.219222337 0 -0 0
155.8372506797 44.219222337 0 -0 0
156.7882026732 44.219222337 0 -0 0
157.7391546667 44.219222337 0 -0 0
158.6901066601 44.219222337 0 -0 0
159.6410586536 44.219222337 0 -0 0
160.5920106471 44.219222337 0 -0 0
161.5429626405 44.219222337 0 -0 0
162.493914634 44.219222337 0 -0 0
163.4448666275 44.219222337 0 -0 0
164.3958186209 44.219222337 0 -0 0
165.3467706144 44.219222337 0 -0 0
166.2977226079 44.219222337 0 -0 0
167.2486746013 44.219222337 0 -0 0
168.1996265948 44.219222337 0 -0 0
-22.9417240918 43.2682703435 0 -0 0
-21.9907720983 43.2682703435 9.8797202361 0.5140351935 1
-21.0398201048 43.2682703435 9.6426706817 0.6594834792 1
-20.0888681114 43.2682703435 9.1129387139 0.5903232557 1
-19.1379161179 43.2682703435 9.2601060666 0.0701222488 1
-18.1869641244 43.2682703435 9.4723013598 0.4191619518 1
-17.236012131 43.2682703435 9.8966143009 0.0698077853 1
-16.2850601375 43.2682703435 10.1708373202 0.3801723633 1
-15.334108144 43.2682703435 9.8501280586 0.7364920898 1
-14.3831561506 43.2682703435 9.3009909769 0.4980573432 1
-13.4322041571 43.2682703435 9.2319441155 0.0220240899 1
-12.4812521636 43.2682703435 9.412634051 0.1721341996 1
-11.5303001702 43.2682703435 8.9283540902 0.0634649406 1
-10.5793481767 43.2682703435 9.9021768104 -0.5014838304 1
-9.6283961833 43.2682703435 9.035703379 -0.5873284764 1
-8.6774441898 43.2682703435 9.4463724876 -0.2099280504 1
-7.7264921963 43.2682703435 9.4140021612 0.0618491418 1
-6.7755402029 43.2682703435 0 -0 0
-5.8245882094 43.2682703435 0 -0 0
-4.8736362159 43.2682703435 0 -0 0
-3.9226842225 43.2682703435 0 -0 0
-2.971732229 43.2682703435 0 -0 0
-2.0207802355 43.2682703435 0 -0 0
-1.0698282421 43.2682703435 0 -0 0
-0.1188762486 43.2682703435 0 -0 0
0.8320757449 43.2682703435 0 -0 0
1.7830277383 43.2682703435 0 -0 0
2.7339797318 43.2682703435 0 -0 0
3.6849317253 43.2682703435 0 -0 0
4.6358837187 43.2682703435 0 -0 0
5.5868357122 43.2682703435 0 -0 0
6.5377877057 43.2682703435 0 -0 0
7.4887396991 43.2682703435 0 -0 0
8.4396916926 43.2682703435 0 -0 0
9.3906436861 43.2682703435 0 -0 0
10.3415956795 43.2682703435 0 -0 0
11.292547673 43.2682703435 0 -0 0
12.2434996665 43.2682703435 0 -0 0
13.1944516599 43.2682703435 0 -0 0
14.1454036534 43.2682703435 0 -0 0
15.0963556468 43.2682703435 0 -0 0
16.0473076403 43.2682703435 0 -0 0
16.9982596338 43.2682703435 9.4327923243 0.7877247895 1
17.9492116272 43.2682703435 9.4550470208 0.2530126521 1
18.9001636207 43.2682703435 9.8101453867 1.1002036491 1
19.8511156142 43.2682703435 9.5033113406 0.3648187813 1
20.8020676076 43.2682703435 9.3958735361 0.9071906278 1
21.7530196011 43.2682703435 9.2996539248 0.8381616248 1
22.7039715946 43.2682703435 9.6417839723 0.5712100881 1
23.654923588 43.2682703435 9.0017832523 0.9616883124 1
24.6058755815 43.2682703435 9.0748210822 1.0662633346 1
25.556827575 43.2682703435 9.1710189528 0.8934893377 1
26.5077795684 43.2682703435 10.3027349477 0.6481464886 1
27.4587315619 43.2682703435 9.0128104382 1.1352457504 1
28.4096835554 43.2682703435 10.2718585169 1.4371757192 1
29.3606355488 43.2682703435 9.8291886735 0.2290062776 1
30.3115875423 43.2682703435 9.0506966869 0.3755928434 1
31.2625395358 43.2682703435 10.1394779355 0.4161376672 1
32.2134915292 43.2682703435 10.1850386459 1.0918831785 1
33.1644435227 43.2682703435 10.0592920792 0.7147444171 1
34.1153955162 43.2682703435 9.5587966735 0.8650199113 1
35.0663475096 43.2682703435 10.3129701515 0.6971562033 1
36.0172995031 43.2682703435 10.0114408324 0.8582422529 1
36.9682514966 43.2682703435 10.2542904908 0.7735708274 1
37.91920349 43.2682703435 10.6081092622 1.0788620613 1
38.8701554835 43.2682703435 0 -0 0
39.8211074769 43.2682703435 9.6836720599 1.1635785211 1
40.7720594704 43.2682703435 0 -0 0
41.7230114639 43.2682703435 11.0794861267 0.7941926432 1
42.6739634573 43.2682703435 0 -0 0
43.6249154508 43.2682703435 10.6736558733 0.6188338342 1
44.5758674443 43.2682703435 8.9832912472 0.9100611746 1
45.5268194377 43.2682703435 0 -0 0
46.4777714312 43.2682703435 9.6539494383 0.5369126053 1
47.4287234247 43.2682703435 9.8070737385 -0.1273041315 1
48.3796754181 43.2682703435 9.9389356493 0.6365563744 1
49.3306274116 43.2682703435 0 -0 0
50.2815794051 43.2682703435 0 -0 0
51.2325313985 43.2682703435 10.1493590767 0.9256011053 1
52.183483392 43.2682703435 9.4167958392 1.1474391686 1
53.1344353855 43.2682703435 0 -0 0
54.0853873789 43.2682703435 10.0727495629 0.4432133605 1
55.0363393724 43.2682703435 10.3812591947 0.8402557186 1
55.9872913659 43.2682703435 10.3966345174 0.9692004954 1
56.9382433593 43.2682703435 9.6925360476 0.5211024689 1
57.8891953528 43.2682703435 10.3155992214 0.9193887047 1
58.8401473463 43.2682703435 9.7575142951 0.4975526488 1
59.7910993397 43.2682703435 0 -0 0
60.7420513332 43.2682703435 10.1828024612 0.6327238023 1
61.6930033267 43.2682703435 0 -0 0
62.6439553201 43.2682703435 0 -0 0
63.5949073136 43.2682703435 9.4044580007 1.0549558493 1
64.5458593071 43.2682703435 9.9035262857 1.0848120208 1
65.4968113005 43.2682703435 10.4128763617 1.4186751731 1
66.447763294 43.2682703435 10.2132254435 0.6809073709 1
67.3987152874 43.2682703435 9.7832692418 1.0542562651 1
68.3496672809 43.2682703435 9.2620673869 1.12257559 1
69.3006192744 43.2682703435 10.0760106656 0.6891214675 1
70.2515712678 43.2682703435 10.2938181612 0.2719410238 1
71.2025232613 43.2682703435 10.4352599494 0.1682581461 1
72.1534752548 43.2682703435 10.0588137841 -0.2651424012 1
73.1044272482 43.2682703435 0 -0 0
74.0553792417 43.2682703435 0.145054624 1.7623806438 1
75.0063312352 43.2682703435 10.0477990215 0.3314429482 1
75.9572832286 43.2682703435 0 -0 0
76.9082352221 43.2682703435 0 -0 0
77.8591872156 43.2682703435 10.4501554241 0.6869823394 1
78.810139209 43.2682703435 10.4523931617 0.8074614488 1
79.7610912025 43.2682703435 10.1140894747 0.7883397403 1
80.712043196 43.2682703435 0 -0 0
81.6629951894 43.2682703435 0 -0 0
82.6139471829 43.2682703435 0 -0 0
83.5648991764 43.2682703435 10.4895635207 0.5091466453 1
84.5158511698 43.2682703435 0 -0 0
85.4668031633 43.2682703435 10.3641089003 0.642239234 1
86.4177551568 43.2682703435 9.4118933148 0.5444721519 1
87.3687071502 43.2682703435 0 -0 0
88.3196591437 43.2682703435 0 -0 0
89.2706111372 43.2682703435 9.1808271074 0.8981069039 1
90.2215631306 43.2682703435 10.1772446105 1.3325385807 1
91.1725151241 43.2682703435 6.4760794081 2.7932043332 1
92.1234671175 43.2682703435 0 -0 0
93.074419111 43.2682703435 0 -0 0
94.0253711045 43.2682703435 0 -0 0
94.9763230979 43.2682703435 0 -0 0
95.9272750914 43.2682703435 0 -0 0
96.8782270849 43.2682703435 0 -0 0
97.8291790783 43.2682703435 0 -0 0
98.7801310718 43.2682703435 0 -0 0
99.7310830653 43.2682703435 0 -0 0
100.6820350587 43.2682703435 0 -0 0
101.6329870522 43.2682703435 0 -0 0
102.5839390457 43.2682703435 0 -0 0
103.5348910391 43.2682703435 -1.8241335055 -4.4768386645 1
104.4858430326 43.2682703435 -1.466242238 -4.0486217176 1
105.4367950261 43.2682703435 0.5073514859 -2.2863171662 1
106.3877470195 43.2682703435 -1.000484564 0.2082765348 1
107.338699013 43.2682703435 -5.8215617343 -0.275747973 1
108.2896510065 43.2682703435 0 -0 0
109.2406029999 43.2682703435 -0.3626920764 -0.3025154144 1
110.1915549934 43.2682703435 0 -0 0
111.1425069869 43.2682703435 0 -0 0
112.0934589803 43.2682703435 10.427051288 -0.3459882426 1
113.0444109738 43.2682703435 0 -0 0
113.9953629673 43.2682703435 4.7540945092 -2.7203295584 1
114.9463149607 43.2682703435 5.8824375922 7.0514660371 1
115.8972669542 43.2682703435 0.4443803694 -2.0169081557 1
116.8482189476 43.2682703435 6.7716906023 1.9543912643 1
117.7991709411 43.2682703435 6.4521553377 2.1314683638 1
118.7501229346 43.2682703435 -8.6153022082 -2.1450151396 1
119.701074928 43.2682703435 -8.4403153203 -6.9527532352 1
120.6520269215 43.2682703435 0 -0 0
121.602978915 43.2682703435 0 -0 0
122.5539309084 43.2682703435 6.3213431914 -6.9695820779 1
123.5048829019 43.2682703435 0 -0 0
124.4558348954 43.2682703435 9.9502175117 -8.5914154075 1
125.4067868888 43.2682703435 10.1904691583 -0.5488513469 1
126.3577388823 43.2682703435 0 -0 0
127.3086908758 43.2682703435 5.770879928 7.5181399257 1
128.2596428692 43.2682703435 0 -0 0
129.2105948627 43.2682703435 10.8095522339 4.9005611131 1
130.1615468562 43.2682703435 7.7867755889 3.9898209303 1
131.1124988496 43.2682703435 7.1815056126 -4.4154662648 1
132.0634508431 43.2682703435 10.0965602713 -0.5607543718 1
133.0144028366 43.2682703435 2.7117621758 -1.968129824 1
133.96535483 43.2682703435 0.0649339897 -1.645229412 1
134.9163068235 43.2682703435 6.3925221927 0.7536920771 1
135.867258817 43.2682703435 4.2671963488 4.9545902083 1
136.8182108104 43.2682703435 10.5205269143 -0.5607388427 1
137.7691628039 43.2682703435 1.8589077305 -0.94364665 1
138.7201147974 43.2682703435 0.4564976953 1.5883891686 1
139.6710667908 43.2682703435 6.6940856758 -9.6619965974 1
140.6220187843 43.2682703435 10.4654670777 -0.2581807234 1
141.5729707778 43.2682703435 7.0936142364 -8.6266617159 1
142.5239227712 43.2682703435 -2.3267020407 -10.3870484284 1
143.4748747647 43.2682703435 0.4855067566 -0.6059517021 1
144.4258267581 43.2682703435 1.0031019872 -0.1175386819 1
145.3767787516 43.2682703435 0 -0 0
146.3277307451 43.2682703435 0 -0 0
147.2786827385 43.2682703435 10.2039825467 -0.4678245919 1
148.229634732 43.2682703435 0 -0 0
149.1805867255 43.2682703435 0 -0 0
150.1315387189 43.2682703435 0 -0 0
151.0824907124 43.2682703435 0 -0 0
152.0334427059 43.2682703435 0 -0 0
152.9843946993 43.2682703435 9.9464392913 -1.3370528786 1
153.9353466928 43.2682703435 10.2423269027 -0.3958652553 1
154.8862986863 43.2682703435 0 -0 0
155.8372506797 43.2682703435 10.1937287081 -0.5085107302 1
156.7882026732 43.2682703435 10.4695263741 -0.7270566327 1
157.7391546667 43.2682703435 10.9034797559 -0.7330244506 1
158.6901066601 43.2682703435 10.0011140072 -0.7748348929 1
159.6410586536 43.2682703435 10.3805044823 -0.3963062806 1
160.5920106471 43.2682703435 10.2563620675 -0.5313415549 1
161.5429626405 43.2682703435 10.3221571436 -0.6858549296 1
162.493914634 43.2682703435 0 -0 0
163.4448666275 43.2682703435 10.2954564771 -0.8284629501 1
164.3958186209 43.2682703435 10.2931100361 -0.8518070102 1
165.3467706144 43.2682703435 0 -0 0
166.2977226079 43.2682703435 10.0995465096 -0.4051811387 1
167.2486746013 43.2682703435 0 -0 0
168.1996265948 43.2682703435 0 -0 0
-22.9417240918 42.3173183501 0 -0 0
-21.9907720983 42.3173183501 9.3430234847 0.8579355539 1
-21.0398201048 42.3173183501 9.6625463261 0.2542262481 1
-20.0888681114 42.3173183501 9.4232388463 0.2710908077 1
-19.1379161179 42.3173183501 8.9557644347 0.4133463186 1
-18.1869641244 42.3173183501 9.299352661 0.2756066585 1
-17.236012131 42.3173183501 9.7797394864 0.106256043 1
-16.2850601375 42.3173183501 10.5393962756 0.4264924447 1
-15.334108144 42.3173183501 9.73140218 0.7912009697 1
-14.3831561506 42.3173183501 9.246381483 0.0723646451 1
-13.4322041571 42.3173183501 8.917629721 -0.0754036822 1
-12.4812521636 42.3173183501 9.5557110491 0.2585029514 1
-11.5303001702 42.3173183501 9.3460159347 0.2891666341 1
-10.5793481767 42.3173183501 9.8920114874 0.2440135615 1
-9.6283961833 42.3173183501 9.0175716481 -0.3500669503 1
-8.6774441898 42.3173183501 9.2196994514 -0.3978770451 1
-7.7264921963 42.3173183501 9.4554958106 0.1456633632 1
-6.7755402029 42.3173183501 0 -0 0
-5.8245882094 42.3173183501 0 -0 0
-4.8736362159 42.3173183501 0 -0 0
-3.9226842225 42.3173183501 0 -0 0
-2.971732229 42.3173183501 0 -0 0
-2.0207802355 42.3173183501 0 -0 0
-1.0698282421 42.3173183501 0 -0 0
-0.1188762486 42.3173183501 0 -0 0
0.8320757449 42.3173183501 0 -0 0
1.7830277383 42.3173183501 0 -0 0
2.7339797318 42.3173183501 0 -0 0
3.6849317253 42.3173183501 0 -0 0
4.6358837187 42.3173183501 0 -0 0
5.5868357122 42.3173183501 0 -0 0
6.5377877057 42.3173183501 0 -0 0
7.4887396991 42.3173183501 0 -0 0
8.4396916926 42.3173183501 0 -0 0
9.3906436861 42.3173183501 0 -0 0
10.3415956795 42.3173183501 0 -0 0
11.292547673 42.3173183501 0 -0 0
12.2434996665 42.3173183501 0 -0 0
13.1944516599 42.3173183501 0 -0 0
14.1454036534 42.3173183501 0 -0 0
15.0963556468 42.3173183501 0 -0 0
16.0473076403 42.3173183501 9.2770964116 0.9134045813 1
16.9982596338 42.3173183501 10.1519182658 0.6588273764 1
17.9492116272 42.3173183501 9.3107354623 0.7871168268 1
18.9001636207 42.3173183501 9.7177862998 0.9648445939 1
19.8511156142 42.3173183501 0 -0 0
20.8020676076 42.3173183501 8.8746095649 1.1352480797 1
21.7530196011 42.3173183501 9.4547395454 0.7706249646 1
22.7039715946 42.3173183501 9.4439810123 0.9282472572 1
23.654923588 42.3173183501 0 -0 0
24.6058755815 42.3173183501 9.3877735781 1.0954292394 1
25.556827575 42.3173183501 9.5073178382 0.7317176802 1
26.5077795684 42.3173183501 9.9738372126 0.4023424264 1
27.4587315619 42.3173183501 9.5516160359 1.1072421957 1
28.4096835554 42.3173183501 9.8529341598 1.3076695669 1
29.3606355488 42.3173183501 0 -0 0
30.3115875423 42.3173183501 9.1010838292 0.17963163 1
31.2625395358 42.3173183501 10.3829363332 0.408092061 1
32.2134915292 42.3173183501 10.3364159269 1.0265547507 1
33.1644435227 42.3173183501 10.1698046376 0.7920768087 1
34.1153955162 42.3173183501 10.2643191581 0.0903830139 1
35.0663475096 42.3173183501 10.109323606 0.9880783977 1
36.0172995031 42.3173183501 10.1064771292 0.4052409255 1
36.9682514966 42.3173183501 9.8915285336 0.6940146744 1
37.91920349 42.3173183501 9.7296877717 1.1335080485 1
38.8701554835 42.3173183501 0 -0 0
39.8211074769 42.3173183501 0 -0 0
40.7720594704 42.3173183501 10.5935926965 0.663718254 1
41.7230114639 42.3173183501 10.4184357653 0.3702663757 1
42.6739634573 42.3173183501 9.6197327065 0.4435713054 1
43.6249154508 42.3173183501 9.2924453349 0.5025654295 1
44.5758674443 42.3173183501 10.1413321054 0.9271113065 1
45.5268194377 42.3173183501 8.7950759291 0.657503524 1
46.4777714312 42.3173183501 10.240454098 0.6669498514 1
47.4287234247 42.3173183501 9.4719364269 0.8158681057 1
48.3796754181 42.3173183501 9.5728613435 0.9378628514 1
49.3306274116 42.3173183501 9.1465700001 -0.1217284224 1
50.2815794051 42.3173183501 10.4008087288 1.3800497411 1
51.2325313985 42.3173183501 10.2396683276 0.6362201702 1
52.183483392 42.3173183501 10.7146060056 0.4192225151 1
53.1344353855 42.3173183501 9.5959794557 0.3008592401 1
54.0853873789 42.3173183501 9.6792524893 0.3129874363 1
55.0363393724 42.3173183501 9.8822778723 0.8335331884 1
55.9872913659 42.3173183501 9.5514219227 0.2433302829 1
56.9382433593 42.3173183501 9.9058618564 0.4441909149 1
57.8891953528 42.3173183501 9.924114714 1.003848935 1
58.8401473463 42.3173183501 9.4842292311 0.5782657167 1
59.7910993397 42.3173183501 9.4779849959 0.5911439665 1
60.7420513332 42.3173183501 10.2138543704 0.8045854668 1
61.6930033267 42.3173183501 0 -0 0
62.6439553201 42.3173183501 10.5062246497 0.9685234283 1
63.5949073136 42.3173183501 10.1193087919 0.8835654917 1
64.5458593071 42.3173183501 10.4939380571 1.3741851914 1
65.4968113005 42.3173183501 10.4986433624 0.7716778349 1
66.447763294 42.3173183501 10.4560611258 0.2639792745 1
67.3987152874 42.3173183501 10.6957366443 0.5697503565 1
68.3496672809 42.3173183501 0 -0 0
69.3006192744 42.3173183501 10.0515166786 0.7668164625 1
70.2515712678 42.3173183501 10.0334750162 0.475227295 1
71.2025232613 42.3173183501 0 -0 0
72.1534752548 42.3173183501 11.0327498664 0.554346305 1
73.1044272482 42.3173183501 0 -0 0
74.0553792417 42.3173183501 0 -0 0
75.0063312352 42.3173183501 10.1206831137 0.4303995563 1
75.9572832286 42.3173183501 0 -0 0
76.9082352221 42.3173183501 10.3106159459 0.5413119881 1
77.8591872156 42.3173183501 10.1255359451 0.7537324527 1
78.810139209 42.3173183501 10.455182181 0.5303546831 1
79.7610912025 42.3173183501 10.0981985871 0.6679833104 1
80.712043196 42.3173183501 0 -0 0
81.6629951894 42.3173183501 0 -0 0
82.6139471829 42.3173183501 0 -0 0
83.5648991764 42.3173183501 10.4771433782 0.5785165111 1
84.5158511698 42.3173183501 0 -0 0
85.4668031633 42.3173183501 0 -0 0
86.4177551568 42.3173183501 9.6083716459 0.1340119092 1
87.3687071502 42.3173183501 0 -0 0
88.3196591437 42.3173183501 11.0225395092 0.2828897879 1
89.2706111372 42.3173183501 10.2731940161 1.0080573104 1
90.2215631306 42.3173183501 0 -0 0
91.1725151241 42.3173183501 6.238925809 3.0361161079 1
92.1234671175 42.3173183501 0 -0 0
93.074419111 42.3173183501 0 -0 0
94.0253711045 42.3173183501 0 -0 0
94.9763230979 42.3173183501 0 -0 0
95.9272750914 42.3173183501 0 -0 0
96.8782270849 42.3173183501 0 -0 0
97.8291790783 42.3173183501 0 -0 0
98.7801310718 42.3173183501 0 -0 0
99.7310830653 42.3173183501 0 -0 0
100.6820350587 42.3173183501 0 -0 0
101.6329870522 42.3173183501 0 -0 0
102.5839390457 42.3173183501 0 -0 0
103.5348910391 42.3173183501 -2.3081859655 -4.0754512753 1
104.4858430326 42.3173183501 -2.4461655496 -3.8047362708 1
105.4367950261 42.3173183501 -1.0687557488 -4.0699897047 1
106.3877470195 42.3173183501 -1.6779965059 2.4022726604 1
107.338699013 42.3173183501 -4.1331526051 -0.7356527441 1
108.2896510065 42.3173183501 -5.2429054616 -0.3462576718 1
109.2406029999 42.3173183501 7.0285831901 0.3309646531 1
110.1915549934 42.3173183501 0 -0 0
111.1425069869 42.3173183501 1.0949672499 -1.2285202753 1
112.0934589803 42.3173183501 -1.4174064488 1.120822359 1
113.0444109738 42.3173183501 10.5309919481 -0.6836187449 1
113.9953629673 42.3173183501 10.4723386869 -0.0853849858 1
114.9463149607 42.3173183501 5.7254403443 -2.7390063594 1
115.8972669542 42.3173183501 1.5116740572 4.7066625471 1
116.8482189476 42.3173183501 9.0564362276 6.5409730223 1
117.7991709411 42.3173183501 0.624208442 2.9861397092 1
118.7501229346 42.3173183501 7.3424332657 -6.96179736 1
119.701074928 42.3173183501 0.583236569 -3.2110385503 1
120.6520269215 42.3173183501 -8.3780204944 -5.9949766931 1
121.602978915 42.3173183501 -8.4568871571 -6.8801471132 1
122.5539309084 42.3173183501 7.160954454 -7.3238294513 1
123.5048829019 42.3173183501 8.6331124876 -4.6380893221 1
124.4558348954 42.3173183501 9.9162678798 -6.9879420861 1
125.4067868888 42.3173183501 5.658260076 -7.4348389397 1
126.3577388823 42.3173183501 7.0786116112 8.1803332259 1
127.3086908758 42.3173183501 9.5423995386 -3.4563883875 1
128.2596428692 42.3173183501 5.7576367453 8.4517703317 1
129.2105948627 42.3173183501 8.1027267464 7.8130165952 1
130.1615468562 42.3173183501 8.12497989 2.5548262677 1
131.1124988496 42.3173183501 -4.4377807482 1.7479898635 1
132.0634508431 42.3173183501 10.377634712 -0.9319913137 1
133.0144028366 42.3173183501 -4.3383217749 0.1998520195 1
133.96535483 42.3173183501 7.2611976449 -1.9758337909 1
134.9163068235 42.3173183501 6.0679850178 0.3467747895 1
135.867258817 42.3173183501 5.9105933317 5.512548961 1
136.8182108104 42.3173183501 3.7441449829 3.6196702462 1
137.7691628039 42.3173183501 6.848317198 2.5552905866 1
138.7201147974 42.3173183501 3.3097070944 5.0103379823 1
139.6710667908 42.3173183501 -2.1645258511 -9.3188509493 1
140.6220187843 42.3173183501 -0.6763224159 -10.5010348377 1
141.5729707778 42.3173183501 -0.7007853447 -10.2406979043 1
142.5239227712 42.3173183501 3.3189577557 2.1408448105 1
143.4748747647 42.3173183501 0.6213798236 0.0151524807 1
144.4258267581 42.3173183501 1.0492264024 0.7066809525 1
145.3767787516 42.3173183501 9.7077281274 -0.7529707523 1
146.3277307451 42.3173183501 10.1326653367 -1.0323292318 1
147.2786827385 42.3173183501 9.9661891503 -0.9575684527 1
148.229634732 42.3173183501 0 -0 0
149.1805867255 42.3173183501 0 -0 0
150.1315387189 42.3173183501 0 -0 0
151.0824907124 42.3173183501 0 -0 0
152.0334427059 42.3173183501 9.5745462465 -1.134987968 1
152.9843946993 42.3173183501 9.1657918711 -1.0510394202 1
153.9353466928 42.3173183501 0 -0 0
154.8862986863 42.3173183501 0 -0 0
155.8372506797 42.3173183501 10.5761380326 -0.8452933458 1
156.7882026732 42.3173183501 9.8901526589 -1.1118947022 1
157.7391546667 42.3173183501 0 -0 0
158.6901066601 42.3173183501 9.7896268392 -0.7545531635 1
159.6410586536 42.3173183501 10.3905191734 -0.261153762 1
160.5920106471 42.3173183501 10.2517949708 -0.7040565413 1
161.5429626405 42.3173183501 10.2051379088 -1.1487769972 1
162.493914634 42.3173183501 9.4691210082 -0.9266795986 1
163.4448666275 42.3173183501 0 -0 0
164.3958186209 42.3173183501 10.3006851118 -0.777592854 1
165.3467706144 42.3173183501 0 -0 0
166.2977226079 42.3173183501 10.4360705663 -0.4532140754 1
167.2486746013 42.3173183501 10.5825950159 -0.9094050718 1
168.1996265948 42.3173183501 0 -0 0
-22.9417240918 41.3663663566 0 -0 0
-21.9907720983 41.3663663566 9.7290107047 0.1619587827 1
-21.0398201048 41.3663663566 9.3904802934 -0.1440669758 1
-20.0888681114 41.3663663566 9.4325423064 0.2302579198 1
-19.1379161179 41.3663663566 8.5210998219 0.4537024644 1
-18.1869641244 41.3663663566 9.1183568031 0.2647184578 1
-17.236012131 41.3663663566 9.4334290158 0.134303079 1
-16.2850601375 41.3663663566 10.1508219142 -0.4745098525 1
-15.334108144 41.3663663566 9.5486763848 0.4513078833 1
-14.3831561506 41.3663663566 9.1548982352 0.4186906448 1
-13.4322041571 41.3663663566 9.2735821853 -0.2572932376 1
-12.4812521636 41.3663663566 9.5859989286 -0.0544122748 1
-11.5303001702 41.3663663566 9.5204243652 -0.015998038 1
-10.5793481767 41.3663663566 9.2677712108 0.6784747436 1
-9.6283961833 41.3663663566 8.7983013149 0.7215787566 1
-8.6774441898 41.3663663566 9.2168312339 -0.0668906513 1
-7.7264921963 41.3663663566 9.3001399844 -0.0078243171 1
-6.7755402029 41.3663663566 10.4960764087 0.0139396611 1
-5.8245882094 41.3663663566 0 -0 0
-4.8736362159 41.3663663566 0 -0 0
-3.9226842225 41.3663663566 0 -0 0
-2.971732229 41.3663663566 0 -0 0
-2.0207802355 41.3663663566 0 -0 0
-1.0698282421 41.3663663566 0 -0 0
-0.1188762486 41.3663663566 0 -0 0
0.8320757449 41.3663663566 0 -0 0
1.7830277383 41.3663663566 0 -0 0
2.7339797318 41.3663663566 0 -0 0
3.6849317253 41.3663663566 0 -0 0
4.6358837187 41.3663663566 0 -0 0
5.5868357122 41.3663663566 0 -0 0
6.5377877057 41.3663663566 0 -0 0
7.4887396991 41.3663663566 0 -0 0
8.4396916926 41.3663663566 0 -0 0
9.3906436861 41.3663663566 0 -0 0
10.3415956795 41.3663663566 0 -0 0
11.292547673 41.3663663566 0 -0 0
12.2434996665 41.3663663566 0 -0 0
13.1944516599 41.3663663566 0 -0 0
14.1454036534 41.3663663566 0 -0 0
15.0963556468 41.3663663566 0 -0 0
16.0473076403 41.3663663566 9.6078125998 0.7679764834 1
16.9982596338 41.3663663566 10.7436810654 0.5232151976 1
17.9492116272 41.3663663566 8.6977692836 0.7673824968 1
18.9001636207 41.3663663566 9.5059217756 0.9239954005 1
19.8511156142 41.3663663566 8.9799090178 0.8611190113 1
20.8020676076 41.3663663566 9.5207147586 1.0224123738 1
21.7530196011 41.3663663566 9.0637814732 0.9041500377 1
22.7039715946 41.3663663566 9.0565884124 0.9709941019 1
23.654923588 41.3663663566 9.6634640936 1.2656246358 1
24.6058755815 41.3663663566 9.5154209019 0.7049292745 1
25.556827575 41.3663663566 9.4059689782 0.4402838033 1
26.5077795684 41.3663663566 9.5870875157 0.0509228949 1
27.4587315619 41.3663663566 9.8280612637 0.4758104113 1
28.4096835554 41.3663663566 9.3189984754 0.3736043472 1
29.3606355488 41.3663663566 9.9662512666 1.8531107322 1
30.3115875423 41.3663663566 8.8297911437 0.9957784823 1
31.2625395358 41.3663663566 9.8223356991 0.4028960374 1
32.2134915292 41.3663663566 10.4220695654 0.0552151272 1
33.1644435227 41.3663663566 10.4959366471 0.517844472 1
34.1153955162 41.3663663566 10.4032095216 0.6123318166 1
35.0663475096 41.3663663566 9.7720557073 0.4031460553 1
36.0172995031 41.3663663566 9.8380029682 0.562328242 1
36.9682514966 41.3663663566 9.3173663711 0.9926858699 1