TITLE = "B00051"
VARIABLES = "x", "y", "Vx", "Vy", "isValid"
ZONE T="Frame 0", I=202, J=155, F=POINT
-22.9417240918 44.219222337 0 -0 0
-21.9907720983 44.219222337 0 -0 0
-21.0398201048 44.219222337 0 -0 0
-20.0888681114 44.219222337 0 -0 0
-19.1379161179 44.219222337 0 -0 0
-18.1869641244 44.219222337 0 -0 0
-17.236012131 44.219222337 0 -0 0
-16.2850601375 44.219222337 0 -0 0
-15.334108144 44.219222337 0 -0 0
-14.3831561506 44.219222337 0 -0 0
-13.4322041571 44.219222337 0 -0 0
-12.4812521636 44.219222337 0 -0 0
-11.5303001702 44.219222337 0 -0 0
-10.5793481767 44.219222337 0 -0 0
-9.6283961833 44.219222337 0 -0 0
-8.6774441898 44.219222337 0 -0 0
-7.7264921963 44.219222337 0 -0 0
-6.7755402029 44.219222337 0 -0 0
-5.8245882094 44.219222337 0 -0 0
-4.8736362159 44.219222337 0 -0 0
-3.9226842225 44.219222337 0 -0 0
-2.971732229 44.219222337 0 -0 0
-2.0207802355 44.219222337 0 -0 0
-1.0698282421 44.219222337 0 -0 0
-0.1188762486 44.219222337 0 -0 0
0.8320757449 44.219222337 0 -0 0
1.7830277383 44.219222337 0 -0 0
2.7339797318 44.219222337 0 -0 0
3.6849317253 44.219222337 0 -0 0
4.6358837187 44.219222337 0 -0 0
5.5868357122 44.219222337 0 -0 0
6.5377877057 44.219222337 0 -0 0
7.4887396991 44.219222337 0 -0 0
8.4396916926 44.219222337 0 -0 0
9.3906436861 44.219222337 0 -0 0
10.3415956795 44.219222337 0 -0 0
11.292547673 44.219222337 0 -0 0
12.2434996665 44.219222337 0 -0 0
13.1944516599 44.219222337 0 -0 0
14.1454036534 44.219222337 0 -0 0
15.0963556468 44.219222337 0 -0 0
16.0473076403 44.219222337 0 -0 0
16.9982596338 44.219222337 0 -0 0
17.9492116272 44.219222337 0 -0 0
18.9001636207 44.219222337 0 -0 0
19.8511156142 44.219222337 0 -0 0
20.8020676076 44.219222337 0 -0 0
21.7530196011 44.219222337 0 -0 0
22.7039715946 44.219222337 0 -0 0
23.654923588 44.219222337 0 -0 0
24.6058755815 44.219222337 0 -0 0
25.556827575 44.219222337 0 -0 0
26.5077795684 44.219222337 0 -0 0
27.4587315619 44.219222337 0 -0 0
28.4096835554 44.219222337 0 -0 0
29.3606355488 44.219222337 0 -0 0
30.3115875423 44.219222337 0 -0 0
31.2625395358 44.219222337 0 -0 0
32.2134915292 44.219222337 0 -0 0
33.1644435227 44.219222337 0 -0 0
34.1153955162 44.219222337 0 -0 0
35.0663475096 44.219222337 0 -0 0
36.0172995031 44.219222337 0 -0 0
36.9682514966 44.219222337 0 -0 0
37.91920349 44.219222337 0 -0 0
38.8701554835 44.219222337 0 -0 0
39.8211074769 44.219222337 0 -0 0
40.7720594704 44.219222337 0 -0 0
41.7230114639 44.219222337 0 -0 0
42.6739634573 44.219222337 0 -0 0
43.6249154508 44.219222337 0 -0 0
44.5758674443 44.219222337 0 -0 0
45.5268194377 44.219222337 0 -0 0
46.4777714312 44.219222337 0 -0 0
47.4287234247 44.219222337 0 -0 0
48.3796754181 44.219222337 0 -0 0
49.3306274116 44.219222337 0 -0 0
50.2815794051 44.219222337 0 -0 0
51.2325313985 44.219222337 0 -0 0
52.183483392 44.219222337 0 -0 0
53.1344353855 44.219222337 0 -0 0
54.0853873789 44.219222337 0 -0 0
55.0363393724 44.219222337 0 -0 0
55.9872913659 44.219222337 0 -0 0
56.9382433593 44.219222337 0 -0 0
57.8891953528 44.219222337 0 -0 0
58.8401473463 44.219222337 0 -0 0
59.7910993397 44.219222337 0 -0 0
60.7420513332 44.219222337 0 -0 0
61.6930033267 44.219222337 0 -0 0
62.6439553201 44.219222337 0 -0 0
63.5949073136 44.219222337 0 -0 0
64.5458593071 44.219222337 0 -0 0
65.4968113005 44.219222337 0 -0 0
66.447763294 44.219222337 0 -0 0
67.3987152874 44.219222337 0 -0 0
68.3496672809 44.219222337 0 -0 0
69.3006192744 44.219222337 0 -0 0
70.2515712678 44.219222337 0 -0 0
71.2025232613 44.219222337 0 -0 0
72.1534752548 44.219222337 0 -0 0
73.1044272482 44.219222337 0 -0 0
74.0553792417 44.219222337 0 -0 0
75.0063312352 44.219222337 0 -0 0
75.9572832286 44.219222337 0 -0 0
76.9082352221 44.219222337 0 -0 0
77.8591872156 44.219222337 0 -0 0
78.810139209 44.219222337 0 -0 0
79.7610912025 44.219222337 0 -0 0
80.712043196 44.219222337 0 -0 0
81.6629951894 44.219222337 0 -0 0
82.6139471829 44.219222337 0 -0 0
83.5648991764 44.219222337 0 -0 0
84.5158511698 44.219222337 0 -0 0
85.4668031633 44.219222337 0 -0 0
86.4177551568 44.219222337 0 -0 0
87.3687071502 44.219222337 0 -0 0
88.3196591437 44.219222337 0 -0 0
89.2706111372 44.219222337 0 -0 0
90.2215631306 44.219222337 0 -0 0
91.1725151241 44.219222337 0 -0 0
92.1234671175 44.219222337 0 -0 0
93.074419111 44.219222337 0 -0 0
94.0253711045 44.219222337 0 -0 0
94.9763230979 44.219222337 0 -0 0
95.9272750914 44.219222337 0 -0 0
96.8782270849 44.219222337 0 -0 0
97.8291790783 44.219222337 0 -0 0
98.7801310718 44.219222337 0 -0 0
99.7310830653 44.219222337 0 -0 0
100.6820350587 44.219222337 0 -0 0
101.6329870522 44.219222337 0 -0 0
102.5839390457 44.219222337 0 -0 0
103.5348910391 44.219222337 0 -0 0
104.4858430326 44.219222337 0 -0 0
105.4367950261 44.219222337 0 -0 0
106.3877470195 44.219222337 0 -0 0
107.338699013 44.219222337 0 -0 0
108.2896510065 44.219222337 0 -0 0
109.2406029999 44.219222337 0 -0 0
110.1915549934 44.219222337 0 -0 0
111.1425069869 44.219222337 0 -0 0
112.0934589803 44.219222337 0 -0 0
113.0444109738 44.219222337 0 -0 0
113.9953629673 44.219222337 0 -0 0
114.9463149607 44.219222337 0 -0 0
115.8972669542 44.219222337 0 -0 0
116.8482189476 44.219222337 0 -0 0
117.7991709411 44.219222337 0 -0 0
118.7501229346 44.219222337 0 -0 0
119.701074928 44.219222337 0 -0 0
120.6520269215 44.219222337 0 -0 0
121.602978915 44.219222337 0 -0 0
122.5539309084 44.219222337 0 -0 0
123.5048829019 44.219222337 0 -0 0
124.4558348954 44.219222337 0 -0 0
125.4067868888 44.219222337 0 -0 0
126.3577388823 44.219222337 0 -0 0
127.3086908758 44.219222337 0 -0 0
128.2596428692 44.219222337 0 -0 0
129.2105948627 44.219222337 0 -0 0
130.1615468562 44.219222337 0 -0 0
131.1124988496 44.219222337 0 -0 0
132.0634508431 44.219222337 0 -0 0
133.0144028366 44.219222337 0 -0 0
133.96535483 44.219222337 0 -0 0
134.9163068235 44.219222337 0 -0 0
135.867258817 44.219222337 0 -0 0
136.8182108104 44.219222337 0 -0 0
137.7691628039 44.219222337 0 -0 0
138.7201147974 44.219222337 0 -0 0
139.6710667908 44.219222337 0 -0 0
140.6220187843 44.219222337 0 -0 0
141.5729707778 44.219222337 0 -0 0
142.5239227712 44.219222337 0 -0 0
143.4748747647 44.219222337 0 -0 0
144.4258267581 44.219222337 0 -0 0
145.3767787516 44.219222337 0 -0 0
146.3277307451 44.219222337 0 -0 0
147.2786827385 44.219222337 0 -0 0
148.229634732 44.219222337 0 -0 0
149.1805867255 44.219222337 0 -0 0
150.1315387189 44.219222337 0 -0 0
151.0824907124 44.219222337 0 -0 0
152.0334427059 44.219222337 0 -0 0
152.9843946993 44.219222337 0 -0 0
153.9353466928 44.219222337 0 -0 0
154.8862986863 44.219222337 0 -0 0
155.8372506797 44.219222337 0 -0 0
156.7882026732 44.219222337 0 -0 0
157.7391546667 44.219222337 0 -0 0
158.6901066601 44.219222337 0 -0 0
159.6410586536 44.219222337 0 -0 0
160.5920106471 44.219222337 0 -0 0
161.5429626405 44.219222337 0 -0 0
162.493914634 44.219222337 0 -0 0
163.4448666275 44.219222337 0 -0 0
164.3958186209 44.219222337 0 -0 0
165.3467706144 44.219222337 0 -0 0
166.2977226079 44.219222337 0 -0 0
167.2486746013 44.219222337 0 -0 0
168.1996265948 44.219222337 0 -0 0
-22.9417240918 43.2682703435 0 -0 0
-21.9907720983 43.2682703435 0 -0 0
-21.0398201048 43.2682703435 9.8996486793 0.5127517166 1
-20.0888681114 43.2682703435 9.4732936668 0.3312829988 1
-19.1379161179 43.2682703435 9.2460817722 0.1074269342 1
-18.1869641244 43.2682703435 9.3060674267 -0.6443900089 1
-17.236012131 43.2682703435 8.9561324734 0.0421885749 1
-16.2850601375 43.2682703435 9.2978680828 0.1520124195 1
-15.334108144 43.2682703435 9.2701223106 0.119114105 1
-14.3831561506 43.2682703435 8.8713422506 -0.1476200248 1
-13.4322041571 43.2682703435 9.7148450958 0.2382111281 1
-12.4812521636 43.2682703435 9.8766020008 0.2569329634 1
-11.5303001702 43.2682703435 9.4322783124 0.5500509669 1
-10.5793481767 43.2682703435 9.2806090851 0.4914093525 1
-9.6283961833 43.2682703435 9.9884640346 -0.1178857564 1
-8.6774441898 43.2682703435 9.0844646287 -0.214388773 1
-7.7264921963 43.2682703435 8.9642805714 -0.3718153994 1
-6.7755402029 43.2682703435 8.9791185887 0.3377058182 1
-5.8245882094 43.2682703435 0 -0 0
-4.8736362159 43.2682703435 0 -0 0
-3.9226842225 43.2682703435 0 -0 0
-2.971732229 43.2682703435 0 -0 0
-2.0207802355 43.2682703435 0 -0 0
-1.0698282421 43.2682703435 0 -0 0
-0.1188762486 43.2682703435 0 -0 0
0.8320757449 43.2682703435 0 -0 0
1.7830277383 43.2682703435 0 -0 0
2.7339797318 43.2682703435 0 -0 0
3.6849317253 43.2682703435 0 -0 0
4.6358837187 43.2682703435 0 -0 0
5.5868357122 43.2682703435 0 -0 0
6.5377877057 43.2682703435 0 -0 0
7.4887396991 43.2682703435 0 -0 0
8.4396916926 43.2682703435 0 -0 0
9.3906436861 43.2682703435 0 -0 0
10.3415956795 43.2682703435 0 -0 0
11.292547673 43.2682703435 0 -0 0
12.2434996665 43.2682703435 0 -0 0
13.1944516599 43.2682703435 0 -0 0
14.1454036534 43.2682703435 0 -0 0
15.0963556468 43.2682703435 0 -0 0
16.0473076403 43.2682703435 9.1964508951 0.8130154173 1
16.9982596338 43.2682703435 9.6568502668 0.7816350685 1
17.9492116272 43.2682703435 9.5017211648 1.0091342507 1
18.9001636207 43.2682703435 9.836799466 0.538247328 1
19.8511156142 43.2682703435 9.0904324467 0.7044113803 1
20.8020676076 43.2682703435 10.0541177962 1.2507229495 1
21.7530196011 43.2682703435 10.0345511801 0.9796461179 1
22.7039715946 43.2682703435 10.4323839674 0.8611741395 1
23.654923588 43.2682703435 9.4112131419 0.7662892509 1
24.6058755815 43.2682703435 9.2363466042 0.7507446615 1
25.556827575 43.2682703435 0 -0 0
26.5077795684 43.2682703435 9.2550218522 1.221576456 1
27.4587315619 43.2682703435 9.051355119 0.9206512173 1
28.4096835554 43.2682703435 9.5124532984 1.1759590645 1
29.3606355488 43.2682703435 9.8355198714 0.8871200936 1
30.3115875423 43.2682703435 10.1091776328 0.5624384984 1
31.2625395358 43.2682703435 9.6581950834 0.9203049193 1
32.2134915292 43.2682703435 10.1159032689 0.4969540035 1
33.1644435227 43.2682703435 9.7127812837 0.9660620723 1
34.1153955162 43.2682703435 10.0301129746 0.6637865818 1
35.0663475096 43.2682703435 9.3141720434 0.7144113188 1
36.0172995031 43.2682703435 10.0717324095 1.2302556478 1
36.9682514966 43.2682703435 0 -0 0
37.91920349 43.2682703435 0 -0 0
38.8701554835 43.2682703435 9.9435120634 0.7907809086 1
39.8211074769 43.2682703435 9.5802423059 0.9070431017 1
40.7720594704 43.2682703435 9.3549948374 0.9760752104 1
41.7230114639 43.2682703435 0 -0 0
42.6739634573 43.2682703435 0 -0 0
43.6249154508 43.2682703435 0 -0 0
44.5758674443 43.2682703435 9.4429157188 0.7716855994 1
45.5268194377 43.2682703435 0 -0 0
46.4777714312 43.2682703435 10.047510181 1.3928231697 1
47.4287234247 43.2682703435 9.6931836094 1.6329265139 1
48.3796754181 43.2682703435 9.8586286662 0.9381113164 1
49.3306274116 43.2682703435 8.751857001 1.632097262 1
50.2815794051 43.2682703435 9.1785055128 1.0499671386 1
51.2325313985 43.2682703435 9.7350670383 1.1310179637 1
52.183483392 43.2682703435 10.3846864583 0.0646039972 1
53.1344353855 43.2682703435 9.9355922426 0.7014220362 1
54.0853873789 43.2682703435 10.1849578948 0.3265093657 1
55.0363393724 43.2682703435 10.3525459619 0.7278377444 1
55.9872913659 43.2682703435 9.856583489 1.2253383708 1
56.9382433593 43.2682703435 10.50587214 1.4334689325 1
57.8891953528 43.2682703435 9.6431676116 1.0838810537 1
58.8401473463 43.2682703435 9.4994477103 0.3957340348 1
59.7910993397 43.2682703435 0 -0 0
60.7420513332 43.2682703435 10.4433630131 0.5747802191 1
61.6930033267 43.2682703435 9.9635088345 0.8247507283 1
62.6439553201 43.2682703435 10.4675013846 0.3516555732 1
63.5949073136 43.2682703435 10.3328256081 0.3289140407 1
64.5458593071 43.2682703435 10.0997080118 0.5828809535 1
65.4968113005 43.2682703435 9.5284544423 0.2690332072 1
66.447763294 43.2682703435 0 -0 0
67.3987152874 43.2682703435 9.4577118076 0.4622473299 1
68.3496672809 43.2682703435 10.2214372106 0.2988878259 1
69.3006192744 43.2682703435 0 -0 0
70.2515712678 43.2682703435 0 -0 0
71.2025232613 43.2682703435 10.1807961066 0.7951857266 1
72.1534752548 43.2682703435 0 -0 0
73.1044272482 43.2682703435 10.1098220889 0.5705066217 1
74.0553792417 43.2682703435 11.111064471 0.7800153875 1
75.0063312352 43.2682703435 10.0432521126 -0.1102532232 1
75.9572832286 43.2682703435 0 -0 0
76.9082352221 43.2682703435 10.1856846548 0.4717503384 1
77.8591872156 43.2682703435 0 -0 0
78.810139209 43.2682703435 0 -0 0
79.7610912025 43.2682703435 0 -0 0
80.712043196 43.2682703435 0 -0 0
81.6629951894 43.2682703435 8.7687805711 2.5834106092 1
82.6139471829 43.2682703435 9.8250672608 -0.0557415624 1
83.5648991764 43.2682703435 0.5828203902 -1.6228287423 1
84.5158511698 43.2682703435 1.3987599295 -1.8869004148 1
85.4668031633 43.2682703435 0 -0 0
86.4177551568 43.2682703435 -0.9551886242 -4.0163554359 1
87.3687071502 43.2682703435 0 -0 0
88.3196591437 43.2682703435 10.3525754672 0.5267333062 1
89.2706111372 43.2682703435 10.2655614829 1.088404669 1
90.2215631306 43.2682703435 10.0434089562 0.7734023371 1
91.1725151241 43.2682703435 9.0136086319 0.9513607108 1
92.1234671175 43.2682703435 0 -0 0
93.074419111 43.2682703435 0 -0 0
94.0253711045 43.2682703435 0 -0 0
94.9763230979 43.2682703435 0 -0 0
95.9272750914 43.2682703435 0 -0 0
96.8782270849 43.2682703435 0 -0 0
97.8291790783 43.2682703435 0 -0 0
98.7801310718 43.2682703435 0 -0 0
99.7310830653 43.2682703435 0 -0 0
100.6820350587 43.2682703435 0 -0 0
101.6329870522 43.2682703435 0 -0 0
102.5839390457 43.2682703435 10.4093528179 1.494760581 1
103.5348910391 43.2682703435 8.4625506054 3.6000057969 1
104.4858430326 43.2682703435 5.721478881 1.2291080503 1
105.4367950261 43.2682703435 9.5331022901 -4.4742437585 1
106.3877470195 43.2682703435 2.0974698153 -5.9459188383 1
107.338699013 43.2682703435 1.1475043907 -3.5481030183 1
108.2896510065 43.2682703435 -2.766010619 -8.1265529838 1
109.2406029999 43.2682703435 0 -0 0
110.1915549934 43.2682703435 0.1469025822 5.154848701 1
111.1425069869 43.2682703435 -0.2255339796 4.8719911359 1
112.0934589803 43.2682703435 -4.3003314815 -1.483671279 1
113.0444109738 43.2682703435 -4.1986293354 -1.3141909958 1
113.9953629673 43.2682703435 -2.6457667748 -0.3507680874 1
114.9463149607 43.2682703435 0 -0 0
115.8972669542 43.2682703435 0 -0 0
116.8482189476 43.2682703435 0 -0 0
117.7991709411 43.2682703435 -6.0486490082 0.1662401447 1
118.7501229346 43.2682703435 1.4115232643 0.7105135246 1
119.701074928 43.2682703435 -0.2763947583 0.9654812854 1
120.6520269215 43.2682703435 -0.7768187304 1.7530531137 1
121.602978915 43.2682703435 1.2379192391 -0.2495923765 1
122.5539309084 43.2682703435 3.1034904894 0.8545882649 1
123.5048829019 43.2682703435 -5.2096585197 0.3651837142 1
124.4558348954 43.2682703435 10.1678603993 -0.9880217166 1
125.4067868888 43.2682703435 6.0496933375 -2.0239226323 1
126.3577388823 43.2682703435 0 -0 0
127.3086908758 43.2682703435 0.0039948508 2.4591268799 1
128.2596428692 43.2682703435 10.4641160494 -0.6307190006 1
129.2105948627 43.2682703435 -3.0747089288 0.7523573544 1
130.1615468562 43.2682703435 6.9152365781 -2.5050377706 1
131.1124988496 43.2682703435 0 -0 0
132.0634508431 43.2682703435 9.7531599466 0.109082332 1
133.0144028366 43.2682703435 0 -0 0
133.96535483 43.2682703435 10.1246383654 -0.2239274983 1
134.9163068235 43.2682703435 0 -0 0
135.867258817 43.2682703435 10.4294986679 0.1481728594 1
136.8182108104 43.2682703435 0 -0 0
137.7691628039 43.2682703435 0 -0 0
138.7201147974 43.2682703435 0 -0 0
139.6710667908 43.2682703435 10.2212368857 -0.448717636 1
140.6220187843 43.2682703435 1.4246251326 -0.9165507689 1
141.5729707778 43.2682703435 -2.382717691 0.0588528096 1
142.5239227712 43.2682703435 0 -0 0
143.4748747647 43.2682703435 -1.0475492639 0.0598039646 1
144.4258267581 43.2682703435 0 -0 0
145.3767787516 43.2682703435 -3.681353227 -1.4738475954 1
146.3277307451 43.2682703435 0 -0 0
147.2786827385 43.2682703435 0 -0 0
148.229634732 43.2682703435 9.7196047528 -0.7964544508 1
149.1805867255 43.2682703435 8.7768044366 -3.236478257 1
150.1315387189 43.2682703435 0 -0 0
151.0824907124 43.2682703435 0 -0 0
152.0334427059 43.2682703435 0 -0 0
152.9843946993 43.2682703435 10.3540289872 -0.9133028659 1
153.9353466928 43.2682703435 9.8127449514 -0.2042871192 1
154.8862986863 43.2682703435 0 -0 0
155.8372506797 43.2682703435 0 -0 0
156.7882026732 43.2682703435 9.3379563523 0.0167791498 1
157.7391546667 43.2682703435 0 -0 0
158.6901066601 43.2682703435 0 -0 0
159.6410586536 43.2682703435 0 -0 0
160.5920106471 43.2682703435 0 -0 0
161.5429626405 43.2682703435 10.3820636 -0.6809275587 1
162.493914634 43.2682703435 9.9130797637 -0.8826244306 1
163.4448666275 43.2682703435 9.8724402126 -0.8015549707 1
164.3958186209 43.2682703435 10.2905244475 -0.8011915907 1
165.3467706144 43.2682703435 10.3741888134 -0.5718832729 1
166.2977226079 43.2682703435 10.4102783499 -0.744751997 1
167.2486746013 43.2682703435 10.390823543 -0.7334181123 1
168.1996265948 43.2682703435 0 -0 0
-22.9417240918 42.3173183501 0 -0 0
-21.9907720983 42.3173183501 0 -0 0
-21.0398201048 42.3173183501 9.6115659737 -0.1564754715 1
-20.0888681114 42.3173183501 9.3328472914 -0.1804624347 1
-19.1379161179 42.3173183501 9.5204740581 0.1390992294 1
-18.1869641244 42.3173183501 9.3888885647 -0.4542886864 1
-17.236012131 42.3173183501 8.9686100735 0.2688748108 1
-16.2850601375 42.3173183501 8.6825290637 0.0806882215 1
-15.334108144 42.3173183501 9.096376971 0.0884232465 1
-14.3831561506 42.3173183501 8.991061989 0.2345889748 1
-13.4322041571 42.3173183501 9.684431431 -0.1933639781 1
-12.4812521636 42.3173183501 9.2961645449 0.2319863043 1
-11.5303001702 42.3173183501 9.8092571244 0.9746838066 1
-10.5793481767 42.3173183501 9.474826385 0.580062429 1
-9.6283961833 42.3173183501 9.740724275 0.04266687 1
-8.6774441898 42.3173183501 9.4343405716 0.4758795156 1
-7.7264921963 42.3173183501 9.3294138162 0.035914058 1
-6.7755402029 42.3173183501 8.7272869216 0.653933393 1
-5.8245882094 42.3173183501 0 -0 0
-4.8736362159 42.3173183501 0 -0 0
-3.9226842225 42.3173183501 0 -0 0
-2.971732229 42.3173183501 0 -0 0
-2.0207802355 42.3173183501 0 -0 0
-1.0698282421 42.3173183501 0 -0 0
-0.1188762486 42.3173183501 0 -0 0
0.8320757449 42.3173183501 0 -0 0
1.7830277383 42.3173183501 0 -0 0
2.7339797318 42.3173183501 0 -0 0
3.6849317253 42.3173183501 0 -0 0
4.6358837187 42.3173183501 0 -0 0
5.5868357122 42.3173183501 0 -0 0
6.5377877057 42.3173183501 0 -0 0
7.4887396991 42.3173183501 0 -0 0
8.4396916926 42.3173183501 0 -0 0
9.3906436861 42.3173183501 0 -0 0
10.3415956795 42.3173183501 0 -0 0
11.292547673 42.3173183501 0 -0 0
12.2434996665 42.3173183501 0 -0 0
13.1944516599 42.3173183501 0 -0 0
14.1454036534 42.3173183501 0 -0 0
15.0963556468 42.3173183501 0 -0 0
16.0473076403 42.3173183501 9.2866498896 0.5239419576 1
16.9982596338 42.3173183501 9.3737663656 0.6529434154 1
17.9492116272 42.3173183501 0 -0 0
18.9001636207 42.3173183501 9.2559877598 0.672625723 1
19.8511156142 42.3173183501 9.648846589 0.7956647981 1
20.8020676076 42.3173183501 9.4103435146 0.7310429425 1
21.7530196011 42.3173183501 9.6629718224 0.7404651999 1
22.7039715946 42.3173183501 8.9011254356 0.6936474121 1
23.654923588 42.3173183501 9.1596905032 0.2538846088 1
24.6058755815 42.3173183501 9.1341172465 0.688253393 1
25.556827575 42.3173183501 0 -0 0
26.5077795684 42.3173183501 0 -0 0
27.4587315619 42.3173183501 9.1792602252 0.866603099 1
28.4096835554 42.3173183501 9.1117026007 0.7434079569 1
29.3606355488 42.3173183501 9.9006844677 0.9595220085 1
30.3115875423 42.3173183501 9.338639631 0.7794190715 1
31.2625395358 42.3173183501 9.8413556923 1.3693020784 1
32.2134915292 42.3173183501 9.5446341703 0.1954277902 1
33.1644435227 42.3173183501 9.5978367313 1.1375642391 1
34.1153955162 42.3173183501 0 -0 0
35.0663475096 42.3173183501 9.6836239198 0.7481753784 1
36.0172995031 42.3173183501 9.6689334287 0.9925888133 1
36.9682514966 42.3173183501 9.8113846057 0.7428077587 1
37.91920349 42.3173183501 0 -0 0
38.8701554835 42.3173183501 10.0242911299 1.1142162967 1
39.8211074769 42.3173183501 10.4583438977 0.723324223 1
40.7720594704 42.3173183501 10.065873295 1.0113378244 1
41.7230114639 42.3173183501 0 -0 0
42.6739634573 42.3173183501 0 -0 0
43.6249154508 42.3173183501 8.1484675939 -0.1509339263 1
44.5758674443 42.3173183501 0 -0 0
45.5268194377 42.3173183501 9.9960546393 0.4891661797 1
46.4777714312 42.3173183501 0 -0 0
47.4287234247 42.3173183501 8.9259812497 0.985833672 1
48.3796754181 42.3173183501 9.4907638598 1.0073390913 1
49.3306274116 42.3173183501 9.2861995468 1.3898322727 1
50.2815794051 42.3173183501 9.6541823742 1.1136052282 1
51.2325313985 42.3173183501 9.303567248 1.1699493181 1
52.183483392 42.3173183501 9.5773181838 0.7013474967 1
53.1344353855 42.3173183501 0 -0 0
54.0853873789 42.3173183501 10.0706950682 0.0431684586 1
55.0363393724 42.3173183501 10.0900396188 0.3725289598 1
55.9872913659 42.3173183501 10.3994716767 1.0080759452 1
56.9382433593 42.3173183501 9.790703003 0.6372908989 1
57.8891953528 42.3173183501 9.6945889894 1.1258165049 1
58.8401473463 42.3173183501 0 -0 0
59.7910993397 42.3173183501 0 -0 0
60.7420513332 42.3173183501 9.8996797374 0.6523626285 1
61.6930033267 42.3173183501 10.3224785952 0.5844338595 1
62.6439553201 42.3173183501 0 -0 0
63.5949073136 42.3173183501 10.370874912 0.6192934944 1
64.5458593071 42.3173183501 10.459230607 0.705639729 1
65.4968113005 42.3173183501 10.344115235 0.4296394088 1
66.447763294 42.3173183501 0 -0 0
67.3987152874 42.3173183501 10.3174689203 0.6215529727 1
68.3496672809 42.3173183501 0 -0 0
69.3006192744 42.3173183501 0 -0 0
70.2515712678 42.3173183501 0 -0 0
71.2025232613 42.3173183501 10.3075303216 0.587310618 1
72.1534752548 42.3173183501 10.3748332695 0.7261140187 1
73.1044272482 42.3173183501 0 -0 0
74.0553792417 42.3173183501 10.4460681754 0.8546845451 1
75.0063312352 42.3173183501 10.1488994165 0.2391615066 1
75.9572832286 42.3173183501 0 -0 0
76.9082352221 42.3173183501 9.5073488963 0.4519383631 1
77.8591872156 42.3173183501 9.5216542667 0.3284613686 1
78.810139209 42.3173183501 10.0668376496 0.0803263944 1
79.7610912025 42.3173183501 0 -0 0
80.712043196 42.3173183501 10.4355689777 0.4407209463 1
81.6629951894 42.3173183501 0 -0 0
82.6139471829 42.3173183501 -2.6420762936 -0.0682478912 1
83.5648991764 42.3173183501 0 -0 0
84.5158511698 42.3173183501 0.1688847437 -4.1404512635 1
85.4668031633 42.3173183501 0.5296318053 -4.1914409334 1
86.4177551568 42.3173183501 -0.3601010527 -4.3454006971 1
87.3687071502 42.3173183501 7.3071900631 -4.1837509427 1
88.3196591437 42.3173183501 7.4884219627 -4.5589532302 1
89.2706111372 42.3173183501 0 -0 0
90.2215631306 42.3173183501 9.442515069 1.1814975039 1
91.1725151241 42.3173183501 0 -0 0
92.1234671175 42.3173183501 0 -0 0
93.074419111 42.3173183501 0 -0 0
94.0253711045 42.3173183501 0 -0 0
94.9763230979 42.3173183501 0 -0 0
95.9272750914 42.3173183501 0 -0 0
96.8782270849 42.3173183501 0 -0 0
97.8291790783 42.3173183501 0 -0 0
98.7801310718 42.3173183501 0 -0 0
99.7310830653 42.3173183501 0 -0 0
100.6820350587 42.3173183501 0 -0 0
101.6329870522 42.3173183501 10.0921500181 0.0805251664 1
102.5839390457 42.3173183501 10.3091608729 0.8720786457 1
103.5348910391 42.3173183501 8.4395520669 3.6437845476 1
104.4858430326 42.3173183501 7.0274914972 1.0893884349 1
105.4367950261 42.3173183501 1.504967056 -8.4844745329 1
106.3877470195 42.3173183501 0.9524454156 -7.7558696529 1
107.338699013 42.3173183501 3.1273772902 -10.6845603795 1
108.2896510065 42.3173183501 0 -0 0
109.2406029999 42.3173183501 -1.4156074072 5.7003073365 1
110.1915549934 42.3173183501 -0.2302625785 3.7721291262 1
111.1425069869 42.3173183501 -0.885734125 5.0446393474 1
112.0934589803 42.3173183501 -5.5560132482 -2.7255457698 1
113.0444109738 42.3173183501 -7.8642104723 -0.2857704286 1
113.9953629673 42.3173183501 0 -0 0
114.9463149607 42.3173183501 10.4007699062 -0.232155571 1
115.8972669542 42.3173183501 0 -0 0
116.8482189476 42.3173183501 10.5479403647 -0.3255395758 1
117.7991709411 42.3173183501 0 -0 0
118.7501229346 42.3173183501 -2.1164370097 -0.1471293065 1
119.701074928 42.3173183501 -2.1426679221 0.0491254062 1
120.6520269215 42.3173183501 -1.5725984435 -1.7108536684 1
121.602978915 42.3173183501 0.4926120782 -0.6262256669 1
122.5539309084 42.3173183501 -0.18516774 0.0159467921 1
123.5048829019 42.3173183501 0.4791941935 0.5326949125 1
124.4558348954 42.3173183501 10.5274016294 -0.5191295018 1
125.4067868888 42.3173183501 5.2753227635 2.0350002875 1
126.3577388823 42.3173183501 9.7355888147 3.3944740236 1
127.3086908758 42.3173183501 10.4555626429 -1.219319307 1
128.2596428692 42.3173183501 0 -0 0
129.2105948627 42.3173183501 -3.8367649579 0.5947575789 1
130.1615468562 42.3173183501 0 -0 0
131.1124988496 42.3173183501 0 -0 0
132.0634508431 42.3173183501 10.5618776964 -0.4395881014 1
133.0144028366 42.3173183501 10.4552054746 -0.1588832523 1
133.96535483 42.3173183501 10.1674799373 0.0282939481 1
134.9163068235 42.3173183501 0 -0 0
135.867258817 42.3173183501 10.4222217502 0.5841100786 1
136.8182108104 42.3173183501 0 -0 0
137.7691628039 42.3173183501 0 -0 0
138.7201147974 42.3173183501 10.9006985012 -1.1417004043 1
139.6710667908 42.3173183501 9.9638023337 -1.1644465956 1
140.6220187843 42.3173183501 -1.1517166483 0.3728201297 1
141.5729707778 42.3173183501 -1.9372665929 0.0805422483 1
142.5239227712 42.3173183501 -1.8506633523 0.2004607587 1
143.4748747647 42.3173183501 -1.2829721492 0.2771463649 1
144.4258267581 42.3173183501 -6.3735251049 0.7245129726 1
145.3767787516 42.3173183501 -3.1047840602 -1.3410454 1
146.3277307451 42.3173183501 0 -0 0
147.2786827385 42.3173183501 0 -0 0
148.229634732 42.3173183501 6.7926129054 -1.9399119683 1
149.1805867255 42.3173183501 8.2269654414 -2.0233480571 1
150.1315387189 42.3173183501 0 -0 0
151.0824907124 42.3173183501 0 -0 0
152.0334427059 42.3173183501 5.0842733919 -0.1701542444 1
152.9843946993 42.3173183501 0 -0 0
153.9353466928 42.3173183501 9.129415047 -0.9069211986 1
154.8862986863 42.3173183501 9.7290464216 -1.2906567048 1
155.8372506797 42.3173183501 0 -0 0
156.7882026732 42.3173183501 9.3926776554 -0.0055198045 1
157.7391546667 42.3173183501 10.4088325943 -0.8665743702 1
158.6901066601 42.3173183501 10.4002232832 -0.8021287695 1
159.6410586536 42.3173183501 0 -0 0
160.5920106471 42.3173183501 0 -0 0
161.5429626405 42.3173183501 9.7429294016 -0.3923160886 1
162.493914634 42.3173183501 9.9022109743 -0.8451264084 1
163.4448666275 42.3173183501 10.2538168545 -0.7660671854 1
164.3958186209 42.3173183501 10.5536022601 -0.7639047637 1
165.3467706144 42.3173183501 10.6355242654 -0.4793859774 1
166.2977226079 42.3173183501 10.3641446172 -0.7185350608 1
167.2486746013 42.3173183501 10.0308956393 -0.8165265379 1
168.1996265948 42.3173183501 0 -0 0
-22.9417240918 41.3663663566 0 -0 0
-21.9907720983 41.3663663566 9.5934513247 -0.1983581239 1
-21.0398201048 41.3663663566 9.815462537 0.4292907814 1
-20.0888681114 41.3663663566 9.3978146686 0.1329582624 1
-19.1379161179 41.3663663566 9.7326817746 0.5697301687 1
-18.1869641244 41.3663663566 9.4301306433 0.3934986265 1
-17.236012131 41.3663663566 0 -0 0
-16.2850601375 41.3663663566 0 -0 0
-15.334108144 41.3663663566 9.4730607309 0.4546644897 1
-14.3831561506 41.3663663566 9.5500134369 0.3801296584 1
-13.4322041571 41.3663663566 9.5227972056 -0.241700508 1
-12.4812521636 41.3663663566 9.2510215663 0.3141994795 1
-11.5303001702 41.3663663566 10.1062550637 0.8588564272 1
-10.5793481767 41.3663663566 9.4909688433 0.5625689425 1
-9.6283961833 41.3663663566 9.7163871315 0.1917217799 1
-8.6774441898 41.3663663566 9.5791537188 0.4122173559 1
-7.7264921963 41.3663663566 0 -0 0
-6.7755402029 41.3663663566 9.424748271 0.4363386455 1
-5.8245882094 41.3663663566 0 -0 0
-4.8736362159 41.3663663566 0 -0 0
-3.9226842225 41.3663663566 0 -0 0
-2.971732229 41.3663663566 0 -0 0
-2.0207802355 41.3663663566 0 -0 0
-1.0698282421 41.3663663566 0 -0 0
-0.1188762486 41.3663663566 0 -0 0
0.8320757449 41.3663663566 0 -0 0
1.7830277383 41.3663663566 0 -0 0
2.7339797318 41.3663663566 0 -0 0
3.6849317253 41.3663663566 0 -0 0
4.6358837187 41.3663663566 0 -0 0
5.5868357122 41.3663663566 0 -0 0
6.5377877057 41.3663663566 0 -0 0
7.4887396991 41.3663663566 0 -0 0
8.4396916926 41.3663663566 0 -0 0
9.3906436861 41.3663663566 0 -0 0
10.3415956795 41.3663663566 0 -0 0
11.292547673 41.3663663566 0 -0 0
12.2434996665 41.3663663566 0 -0 0
13.1944516599 41.3663663566 0 -0 0
14.1454036534 41.3663663566 0 -0 0
15.0963556468 41.3663663566 0 -0 0
16.0473076403 41.3663663566 9.6481493342 0.5964440349 1
16.9982596338 41.3663663566 9.5899836855 0.6757059122 1
17.9492116272 41.3663663566 9.3580012635 0.9416713535 1
18.9001636207 41.3663663566 9.781283075 0.7175023783 1
19.8511156142 41.3663663566 9.8432502377 0.6368467678 1
20.8020676076 41.3663663566 8.4672574636 0.3847837178 1
21.7530196011 41.3663663566 9.4110392165 0.5225606477 1
22.7039715946 41.3663663566 9.3052397278 0.4920010097 1
23.654923588 41.3663663566 0 -0 0
24.6058755815 41.3663663566 10.2215164088 0.8247095762 1
25.556827575 41.3663663566 9.5375373897 1.420767714 1
26.5077795684 41.3663663566 0 -0 0
27.4587315619 41.3663663566 9.7398499889 0.4374582907 1
28.4096835554 41.3663663566 8.6600616191 0.9018268903 1
29.3606355488 41.3663663566 9.0393449437 0.706409194 1
30.3115875423 41.3663663566 9.7247821416 0.6990709365 1
31.2625395358 41.3663663566 9.4028864597 1.4891724487 1
32.2134915292 41.3663663566 10.1689489864 0.4434827897 1
33.1644435227 41.3663663566 0 -0 0
34.1153955162 41.3663663566 9.8780477563 0.7865802977 1
35.0663475096 41.3663663566 9.7026873944 0.9824172787 1
36.0172995031 41.3663663566 9.4234997345 1.0129668228 1
36.9682514966 41.3663663566 9.4753621376 0.9050390764 1
37.91920349 41.3663663566 0 -0 0
38.8701554835 41.3663663566 9.6595367942 0.9944468654 1
39.8211074769 41.3663663566 9.5272509401 0.904045993 1
40.7720594704 41.3663663566 9.3372777324 1.2474315651 1
41.7230114639 41.3663663566 10.242586238 0.3252748054 1
42.6739634573 41.3663663566 10.3150681275 0.5400339464 1
43.6249154508 41.3663663566 8.9094893876 0.8397859646 1
44.5758674443 41.3663663566 0 -0 0
45.5268194377 41.3663663566 9.4244811712 0.4025411984 1