TITLE = "B00009"
VARIABLES = "x", "y", "Vx", "Vy", "isValid"
ZONE T="Frame 0", I=202, J=155, F=POINT
-22.9417240918 44.219222337 0 -0 0
-21.9907720983 44.219222337 0 -0 0
-21.0398201048 44.219222337 0 -0 0
-20.0888681114 44.219222337 0 -0 0
-19.1379161179 44.219222337 0 -0 0
-18.1869641244 44.219222337 0 -0 0
-17.236012131 44.219222337 0 -0 0
-16.2850601375 44.219222337 0 -0 0
-15.334108144 44.219222337 0 -0 0
-14.3831561506 44.219222337 0 -0 0
-13.4322041571 44.219222337 0 -0 0
-12.4812521636 44.219222337 0 -0 0
-11.5303001702 44.219222337 0 -0 0
-10.5793481767 44.219222337 0 -0 0
-9.6283961833 44.219222337 0 -0 0
-8.6774441898 44.219222337 0 -0 0
-7.7264921963 44.219222337 0 -0 0
-6.7755402029 44.219222337 0 -0 0
-5.8245882094 44.219222337 0 -0 0
-4.8736362159 44.219222337 0 -0 0
-3.9226842225 44.219222337 0 -0 0
-2.971732229 44.219222337 0 -0 0
-2.0207802355 44.219222337 0 -0 0
-1.0698282421 44.219222337 0 -0 0
-0.1188762486 44.219222337 0 -0 0
0.8320757449 44.219222337 0 -0 0
1.7830277383 44.219222337 0 -0 0
2.7339797318 44.219222337 0 -0 0
3.6849317253 44.219222337 0 -0 0
4.6358837187 44.219222337 0 -0 0
5.5868357122 44.219222337 0 -0 0
6.5377877057 44.219222337 0 -0 0
7.4887396991 44.219222337 0 -0 0
8.4396916926 44.219222337 0 -0 0
9.3906436861 44.219222337 0 -0 0
10.3415956795 44.219222337 0 -0 0
11.292547673 44.219222337 0 -0 0
12.2434996665 44.219222337 0 -0 0
13.1944516599 44.219222337 0 -0 0
14.1454036534 44.219222337 0 -0 0
15.0963556468 44.219222337 0 -0 0
16.0473076403 44.219222337 0 -0 0
16.9982596338 44.219222337 0 -0 0
17.9492116272 44.219222337 0 -0 0
18.9001636207 44.219222337 0 -0 0
19.8511156142 44.219222337 0 -0 0
20.8020676076 44.219222337 0 -0 0
21.7530196011 44.219222337 0 -0 0
22.7039715946 44.219222337 0 -0 0
23.654923588 44.219222337 0 -0 0
24.6058755815 44.219222337 0 -0 0
25.556827575 44.219222337 0 -0 0
26.5077795684 44.219222337 0 -0 0
27.4587315619 44.219222337 0 -0 0
28.4096835554 44.219222337 0 -0 0
29.3606355488 44.219222337 0 -0 0
30.3115875423 44.219222337 0 -0 0
31.2625395358 44.219222337 0 -0 0
32.2134915292 44.219222337 0 -0 0
33.1644435227 44.219222337 0 -0 0
34.1153955162 44.219222337 0 -0 0
35.0663475096 44.219222337 0 -0 0
36.0172995031 44.219222337 0 -0 0
36.9682514966 44.219222337 0 -0 0
37.91920349 44.219222337 0 -0 0
38.8701554835 44.219222337 0 -0 0
39.8211074769 44.219222337 0 -0 0
40.7720594704 44.219222337 0 -0 0
41.7230114639 44.219222337 0 -0 0
42.6739634573 44.219222337 0 -0 0
43.6249154508 44.219222337 0 -0 0
44.5758674443 44.219222337 0 -0 0
45.5268194377 44.219222337 0 -0 0
46.4777714312 44.219222337 0 -0 0
47.4287234247 44.219222337 0 -0 0
48.3796754181 44.219222337 0 -0 0
49.3306274116 44.219222337 0 -0 0
50.2815794051 44.219222337 0 -0 0
51.2325313985 44.219222337 0 -0 0
52.183483392 44.219222337 0 -0 0
53.1344353855 44.219222337 0 -0 0
54.0853873789 44.219222337 0 -0 0
55.0363393724 44.219222337 0 -0 0
55.9872913659 44.219222337 0 -0 0
56.9382433593 44.219222337 0 -0 0
57.8891953528 44.219222337 0 -0 0
58.8401473463 44.219222337 0 -0 0
59.7910993397 44.219222337 0 -0 0
60.7420513332 44.219222337 0 -0 0
61.6930033267 44.219222337 0 -0 0
62.6439553201 44.219222337 0 -0 0
63.5949073136 44.219222337 0 -0 0
64.5458593071 44.219222337 0 -0 0
65.4968113005 44.219222337 0 -0 0
66.447763294 44.219222337 0 -0 0
67.3987152874 44.219222337 0 -0 0
68.3496672809 44.219222337 0 -0 0
69.3006192744 44.219222337 0 -0 0
70.2515712678 44.219222337 0 -0 0
71.2025232613 44.219222337 0 -0 0
72.1534752548 44.219222337 0 -0 0
73.1044272482 44.219222337 0 -0 0
74.0553792417 44.219222337 0 -0 0
75.0063312352 44.219222337 0 -0 0
75.9572832286 44.219222337 0 -0 0
76.9082352221 44.219222337 0 -0 0
77.8591872156 44.219222337 0 -0 0
78.810139209 44.219222337 0 -0 0
79.7610912025 44.219222337 0 -0 0
80.712043196 44.219222337 0 -0 0
81.6629951894 44.219222337 0 -0 0
82.6139471829 44.219222337 0 -0 0
83.5648991764 44.219222337 0 -0 0
84.5158511698 44.219222337 0 -0 0
85.4668031633 44.219222337 0 -0 0
86.4177551568 44.219222337 0 -0 0
87.3687071502 44.219222337 0 -0 0
88.3196591437 44.219222337 0 -0 0
89.2706111372 44.219222337 0 -0 0
90.2215631306 44.219222337 0 -0 0
91.1725151241 44.219222337 0 -0 0
92.1234671175 44.219222337 0 -0 0
93.074419111 44.219222337 0 -0 0
94.0253711045 44.219222337 0 -0 0
94.9763230979 44.219222337 0 -0 0
95.9272750914 44.219222337 0 -0 0
96.8782270849 44.219222337 0 -0 0
97.8291790783 44.219222337 0 -0 0
98.7801310718 44.219222337 0 -0 0
99.7310830653 44.219222337 0 -0 0
100.6820350587 44.219222337 0 -0 0
101.6329870522 44.219222337 0 -0 0
102.5839390457 44.219222337 0 -0 0
103.5348910391 44.219222337 0 -0 0
104.4858430326 44.219222337 0 -0 0
105.4367950261 44.219222337 0 -0 0
106.3877470195 44.219222337 0 -0 0
107.338699013 44.219222337 0 -0 0
108.2896510065 44.219222337 0 -0 0
109.2406029999 44.219222337 0 -0 0
110.1915549934 44.219222337 0 -0 0
111.1425069869 44.219222337 0 -0 0
112.0934589803 44.219222337 0 -0 0
113.0444109738 44.219222337 0 -0 0
113.9953629673 44.219222337 0 -0 0
114.9463149607 44.219222337 0 -0 0
115.8972669542 44.219222337 0 -0 0
116.8482189476 44.219222337 0 -0 0
117.7991709411 44.219222337 0 -0 0
118.7501229346 44.219222337 0 -0 0
119.701074928 44.219222337 0 -0 0
120.6520269215 44.219222337 0 -0 0
121.602978915 44.219222337 0 -0 0
122.5539309084 44.219222337 0 -0 0
123.5048829019 44.219222337 0 -0 0
124.4558348954 44.219222337 0 -0 0
125.4067868888 44.219222337 0 -0 0
126.3577388823 44.219222337 0 -0 0
127.3086908758 44.219222337 0 -0 0
128.2596428692 44.219222337 0 -0 0
129.2105948627 44.219222337 0 -0 0
130.1615468562 44.219222337 0 -0 0
131.1124988496 44.219222337 0 -0 0
132.0634508431 44.219222337 0 -0 0
133.0144028366 44.219222337 0 -0 0
133.96535483 44.219222337 0 -0 0
134.9163068235 44.219222337 0 -0 0
135.867258817 44.219222337 0 -0 0
136.8182108104 44.219222337 0 -0 0
137.7691628039 44.219222337 0 -0 0
138.7201147974 44.219222337 0 -0 0
139.6710667908 44.219222337 0 -0 0
140.6220187843 44.219222337 0 -0 0
141.5729707778 44.219222337 0 -0 0
142.5239227712 44.219222337 0 -0 0
143.4748747647 44.219222337 0 -0 0
144.4258267581 44.219222337 0 -0 0
145.3767787516 44.219222337 0 -0 0
146.3277307451 44.219222337 0 -0 0
147.2786827385 44.219222337 0 -0 0
148.229634732 44.219222337 0 -0 0
149.1805867255 44.219222337 0 -0 0
150.1315387189 44.219222337 0 -0 0
151.0824907124 44.219222337 0 -0 0
152.0334427059 44.219222337 0 -0 0
152.9843946993 44.219222337 0 -0 0
153.9353466928 44.219222337 0 -0 0
154.8862986863 44.219222337 0 -0 0
155.8372506797 44.219222337 0 -0 0
156.7882026732 44.219222337 0 -0 0
157.7391546667 44.219222337 0 -0 0
158.6901066601 44.219222337 0 -0 0
159.6410586536 44.219222337 0 -0 0
160.5920106471 44.219222337 0 -0 0
161.5429626405 44.219222337 0 -0 0
162.493914634 44.219222337 0 -0 0
163.4448666275 44.219222337 0 -0 0
164.3958186209 44.219222337 0 -0 0
165.3467706144 44.219222337 0 -0 0
166.2977226079 44.219222337 0 -0 0
167.2486746013 44.219222337 0 -0 0
168.1996265948 44.219222337 0 -0 0
-22.9417240918 43.2682703435 0 -0 0
-21.9907720983 43.2682703435 9.1795630418 0.6179983707 1
-21.0398201048 43.2682703435 9.4604588983 0.222074105 1
-20.0888681114 43.2682703435 9.2990622676 0.0270073654 1
-19.1379161179 43.2682703435 9.0304607682 0.9962101902 1
-18.1869641244 43.2682703435 9.3623602708 0.6197585897 1
-17.236012131 43.2682703435 9.4115936039 1.4140187843 1
-16.2850601375 43.2682703435 0 -0 0
-15.334108144 43.2682703435 9.5833729645 0.5441429358 1
-14.3831561506 43.2682703435 9.4436052091 0.3133663454 1
-13.4322041571 43.2682703435 9.2413655965 -0.0760302798 1
-12.4812521636 43.2682703435 9.1452562416 -0.1302895934 1
-11.5303001702 43.2682703435 9.3512181699 0.5920182526 1
-10.5793481767 43.2682703435 9.9308481146 0.3538870992 1
-9.6283961833 43.2682703435 9.4161032431 0.5545722528 1
-8.6774441898 43.2682703435 9.4311136329 0.3304281241 1
-7.7264921963 43.2682703435 9.347101416 0.0255779154 1
-6.7755402029 43.2682703435 9.3317773392 0.3546278354 1
-5.8245882094 43.2682703435 0 -0 0
-4.8736362159 43.2682703435 0 -0 0
-3.9226842225 43.2682703435 0 -0 0
-2.971732229 43.2682703435 0 -0 0
-2.0207802355 43.2682703435 0 -0 0
-1.0698282421 43.2682703435 0 -0 0
-0.1188762486 43.2682703435 0 -0 0
0.8320757449 43.2682703435 0 -0 0
1.7830277383 43.2682703435 0 -0 0
2.7339797318 43.2682703435 0 -0 0
3.6849317253 43.2682703435 0 -0 0
4.6358837187 43.2682703435 0 -0 0
5.5868357122 43.2682703435 0 -0 0
6.5377877057 43.2682703435 0 -0 0
7.4887396991 43.2682703435 0 -0 0
8.4396916926 43.2682703435 0 -0 0
9.3906436861 43.2682703435 0 -0 0
10.3415956795 43.2682703435 0 -0 0
11.292547673 43.2682703435 0 -0 0
12.2434996665 43.2682703435 0 -0 0
13.1944516599 43.2682703435 0 -0 0
14.1454036534 43.2682703435 0 -0 0
15.0963556468 43.2682703435 0 -0 0
16.0473076403 43.2682703435 9.012945541 0.4822534184 1
16.9982596338 43.2682703435 9.1713776741 0.9273232781 1
17.9492116272 43.2682703435 9.9839264431 0.7404124011 1
18.9001636207 43.2682703435 9.2420783804 0.4777383441 1
19.8511156142 43.2682703435 9.5298334229 0.1544000126 1
20.8020676076 43.2682703435 9.3906728537 0.8574052365 1
21.7530196011 43.2682703435 9.5019214897 0.6640855162 1
22.7039715946 43.2682703435 9.2231546673 0.9718815877 1
23.654923588 43.2682703435 9.0432505024 0.7476272026 1
24.6058755815 43.2682703435 10.7818763425 0.9684939231 1
25.556827575 43.2682703435 10.0197053983 0.9718140362 1
26.5077795684 43.2682703435 9.8526484251 0.2675369823 1
27.4587315619 43.2682703435 10.5799923454 0.7390815606 1
28.4096835554 43.2682703435 10.1891398708 0.9428670912 1
29.3606355488 43.2682703435 9.9188208573 0.8754802864 1
30.3115875423 43.2682703435 9.1666677101 0.4600709321 1
31.2625395358 43.2682703435 9.6591967078 0.0669310269 1
32.2134915292 43.2682703435 9.4235509804 1.8635850835 1
33.1644435227 43.2682703435 10.4833891663 0.6742337572 1
34.1153955162 43.2682703435 9.8720939145 0.1943174624 1
35.0663475096 43.2682703435 9.5038859158 0.2670097707 1
36.0172995031 43.2682703435 9.5278876316 0.9878112978 1
36.9682514966 43.2682703435 10.1135583808 0.5832583097 1
37.91920349 43.2682703435 9.7195395308 1.6439909694 1
38.8701554835 43.2682703435 10.0152563225 0.7715217679 1
39.8211074769 43.2682703435 10.018786078 0.4318274534 1
40.7720594704 43.2682703435 0 -0 0
41.7230114639 43.2682703435 0 -0 0
42.6739634573 43.2682703435 0 -0 0
43.6249154508 43.2682703435 9.9070110069 0.7559212738 1
44.5758674443 43.2682703435 9.7721830456 1.188694447 1
45.5268194377 43.2682703435 9.319119602 0.6995717487 1
46.4777714312 43.2682703435 9.5429337382 -0.2436649341 1
47.4287234247 43.2682703435 10.2212896846 -0.1518330589 1
48.3796754181 43.2682703435 9.194220922 0.4938155804 1
49.3306274116 43.2682703435 10.1244395934 1.2403114909 1
50.2815794051 43.2682703435 9.2783263132 0.6493577553 1
51.2325313985 43.2682703435 10.1183056146 0.0982973996 1
52.183483392 43.2682703435 10.03541149 0.4014386351 1
53.1344353855 43.2682703435 9.2961614391 -0.0227601674 1
54.0853873789 43.2682703435 10.7369849346 0.6057187662 1
55.0363393724 43.2682703435 9.8485767054 0.720614402 1
55.9872913659 43.2682703435 9.614420215 1.3253105796 1
56.9382433593 43.2682703435 10.0590498258 0.9514088509 1
57.8891953528 43.2682703435 9.8082865582 0.6392320315 1
58.8401473463 43.2682703435 9.541963172 0.277268268 1
59.7910993397 43.2682703435 0 -0 0
60.7420513332 43.2682703435 9.9557862327 0.5259638412 1
61.6930033267 43.2682703435 0 -0 0
62.6439553201 43.2682703435 10.3741313559 0.7487864469 1
63.5949073136 43.2682703435 10.5365420343 0.541107781 1
64.5458593071 43.2682703435 10.3854054538 0.850752587 1
65.4968113005 43.2682703435 10.7035788198 0.5774776169 1
66.447763294 43.2682703435 9.568654521 0.7787932504 1
67.3987152874 43.2682703435 9.7403298369 0.8178123441 1
68.3496672809 43.2682703435 10.2155718845 1.2163905262 1
69.3006192744 43.2682703435 10.3979032416 0.5994885072 1
70.2515712678 43.2682703435 10.2176061914 0.5348782984 1
71.2025232613 43.2682703435 10.4381871772 0.9670225446 1
72.1534752548 43.2682703435 0 -0 0
73.1044272482 43.2682703435 9.5215440104 1.246334437 1
74.0553792417 43.2682703435 0 -0 0
75.0063312352 43.2682703435 0 -0 0
75.9572832286 43.2682703435 0 -0 0
76.9082352221 43.2682703435 0 -0 0
77.8591872156 43.2682703435 0 -0 0
78.810139209 43.2682703435 0 -0 0
79.7610912025 43.2682703435 0 -0 0
80.712043196 43.2682703435 10.4258089632 0.9667469038 1
81.6629951894 43.2682703435 10.5039527481 1.0343938204 1
82.6139471829 43.2682703435 0 -0 0
83.5648991764 43.2682703435 0 -0 0
84.5158511698 43.2682703435 0 -0 0
85.4668031633 43.2682703435 11.1662143762 0.4793696719 1
86.4177551568 43.2682703435 10.9620460544 0.1252535191 1
87.3687071502 43.2682703435 9.5057059217 -0.5449046362 1
88.3196591437 43.2682703435 0 -0 0
89.2706111372 43.2682703435 0 -0 0
90.2215631306 43.2682703435 0 -0 0
91.1725151241 43.2682703435 0 -0 0
92.1234671175 43.2682703435 0 -0 0
93.074419111 43.2682703435 0 -0 0
94.0253711045 43.2682703435 0 -0 0
94.9763230979 43.2682703435 0 -0 0
95.9272750914 43.2682703435 0 -0 0
96.8782270849 43.2682703435 0 -0 0
97.8291790783 43.2682703435 0 -0 0
98.7801310718 43.2682703435 0 -0 0
99.7310830653 43.2682703435 0 -0 0
100.6820350587 43.2682703435 0 -0 0
101.6329870522 43.2682703435 10.5446590742 0.3219298458 1
102.5839390457 43.2682703435 4.1259750734 -4.0382343291 1
103.5348910391 43.2682703435 7.2252665049 2.7964374836 1
104.4858430326 43.2682703435 1.8885899765 0.0851101214 1
105.4367950261 43.2682703435 2.5171007447 -0.648578973 1
106.3877470195 43.2682703435 0 -0 0
107.338699013 43.2682703435 0 -0 0
108.2896510065 43.2682703435 0 -0 0
109.2406029999 43.2682703435 10.0674526004 -0.3269837785 1
110.1915549934 43.2682703435 10.3587933029 -0.403903097 1
111.1425069869 43.2682703435 5.9289890567 8.0065304288 1
112.0934589803 43.2682703435 6.003820493 8.3576595668 1
113.0444109738 43.2682703435 10.1390788387 -0.4507270964 1
113.9953629673 43.2682703435 10.8772030327 -0.3577515059 1
114.9463149607 43.2682703435 10.438901514 -0.4772080267 1
115.8972669542 43.2682703435 0 -0 0
116.8482189476 43.2682703435 0 -0 0
117.7991709411 43.2682703435 -3.0001360513 -2.05111557 1
118.7501229346 43.2682703435 1.3767055579 -3.2662164078 1
119.701074928 43.2682703435 0 -0 0
120.6520269215 43.2682703435 3.8573751269 1.3989726777 1
121.602978915 43.2682703435 3.2192891401 0.810550179 1
122.5539309084 43.2682703435 0 -0 0
123.5048829019 43.2682703435 0 -0 0
124.4558348954 43.2682703435 10.3911418887 -0.9578417641 1
125.4067868888 43.2682703435 0 -0 0
126.3577388823 43.2682703435 10.6124232352 -0.5246135894 1
127.3086908758 43.2682703435 1.1475727185 -1.2527013518 1
128.2596428692 43.2682703435 10.493128993 0.1798327313 1
129.2105948627 43.2682703435 2.6769103055 -6.4594508903 1
130.1615468562 43.2682703435 1.9510649395 -6.6279008202 1
131.1124988496 43.2682703435 4.2787080413 -6.3694087392 1
132.0634508431 43.2682703435 1.7461667518 4.1749156837 1
133.0144028366 43.2682703435 2.1803592811 4.4599865281 1
133.96535483 43.2682703435 10.4074769074 -0.5461438553 1
134.9163068235 43.2682703435 6.4280107545 3.1761703745 1
135.867258817 43.2682703435 10.1793953853 -0.2747766302 1
136.8182108104 43.2682703435 10.6096342159 -0.5099487212 1
137.7691628039 43.2682703435 5.9213332299 -4.0076249981 1
138.7201147974 43.2682703435 10.5468657537 -0.6398058303 1
139.6710667908 43.2682703435 10.7628905132 -0.313753019 1
140.6220187843 43.2682703435 10.4855772109 -0.4721967989 1
141.5729707778 43.2682703435 9.8718889309 -0.8381406606 1
142.5239227712 43.2682703435 10.5851619696 -0.8372096934 1
143.4748747647 43.2682703435 0 -0 0
144.4258267581 43.2682703435 0 -0 0
145.3767787516 43.2682703435 7.1745951807 6.7258224165 1
146.3277307451 43.2682703435 4.4134738864 -2.673827787 1
147.2786827385 43.2682703435 9.921602112 -0.7209878759 1
148.229634732 43.2682703435 6.7664262508 2.4257929753 1
149.1805867255 43.2682703435 0 -0 0
150.1315387189 43.2682703435 0 -0 0
151.0824907124 43.2682703435 10.3933532269 -0.2514480992 1
152.0334427059 43.2682703435 0 -0 0
152.9843946993 43.2682703435 0 -0 0
153.9353466928 43.2682703435 10.1096574808 -1.0679195089 1
154.8862986863 43.2682703435 10.2208983522 -0.7556464094 1
155.8372506797 43.2682703435 0 -0 0
156.7882026732 43.2682703435 0 -0 0
157.7391546667 43.2682703435 10.5786801398 -0.4821819848 1
158.6901066601 43.2682703435 10.3792233348 -0.6777052787 1
159.6410586536 43.2682703435 10.3207067294 -0.1042605588 1
160.5920106471 43.2682703435 9.9437651871 -0.8181749476 1
161.5429626405 43.2682703435 10.2757764988 -0.486285539 1
162.493914634 43.2682703435 10.2803498071 -0.8556333707 1
163.4448666275 43.2682703435 10.4587942404 -0.8488254306 1
164.3958186209 43.2682703435 10.0060569071 -0.8053207679 1
165.3467706144 43.2682703435 0 -0 0
166.2977226079 43.2682703435 9.1542009804 -0.9455404189 1
167.2486746013 43.2682703435 10.0990185215 -0.8813564828 1
168.1996265948 43.2682703435 0 -0 0
-22.9417240918 42.3173183501 0 -0 0
-21.9907720983 42.3173183501 9.6935454365 0.6276302705 1
-21.0398201048 42.3173183501 8.7220194644 0.82233363 1
-20.0888681114 42.3173183501 9.0259169651 0.1064330743 1
-19.1379161179 42.3173183501 9.2994893167 0.9000612361 1
-18.1869641244 42.3173183501 9.1990582243 0.1188477817 1
-17.236012131 42.3173183501 0 -0 0
-16.2850601375 42.3173183501 9.4966757731 1.1574895765 1
-15.334108144 42.3173183501 8.7694514265 0.4224595477 1
-14.3831561506 42.3173183501 9.5220844217 0.2944845608 1
-13.4322041571 42.3173183501 9.9524024505 0.2213380275 1
-12.4812521636 42.3173183501 9.3622034273 0.5349520614 1
-11.5303001702 42.3173183501 9.6115224923 0.5615673181 1
-10.5793481767 42.3173183501 9.9531633744 0.5194657059 1
-9.6283961833 42.3173183501 9.3450872969 0.3605855594 1
-8.6774441898 42.3173183501 8.9999321883 0.9606230189 1
-7.7264921963 42.3173183501 9.0386771941 0.5439270819 1
-6.7755402029 42.3173183501 9.7631715318 0.7515583842 1
-5.8245882094 42.3173183501 0 -0 0
-4.8736362159 42.3173183501 0 -0 0
-3.9226842225 42.3173183501 0 -0 0
-2.971732229 42.3173183501 0 -0 0
-2.0207802355 42.3173183501 0 -0 0
-1.0698282421 42.3173183501 0 -0 0
-0.1188762486 42.3173183501 0 -0 0
0.8320757449 42.3173183501 0 -0 0
1.7830277383 42.3173183501 0 -0 0
2.7339797318 42.3173183501 0 -0 0
3.6849317253 42.3173183501 0 -0 0
4.6358837187 42.3173183501 0 -0 0
5.5868357122 42.3173183501 0 -0 0
6.5377877057 42.3173183501 0 -0 0
7.4887396991 42.3173183501 0 -0 0
8.4396916926 42.3173183501 0 -0 0
9.3906436861 42.3173183501 0 -0 0
10.3415956795 42.3173183501 0 -0 0
11.292547673 42.3173183501 0 -0 0
12.2434996665 42.3173183501 0 -0 0
13.1944516599 42.3173183501 0 -0 0
14.1454036534 42.3173183501 0 -0 0
15.0963556468 42.3173183501 0 -0 0
16.0473076403 42.3173183501 9.4224359939 0.6916938563 1
16.9982596338 42.3173183501 9.2586044065 0.5989752717 1
17.9492116272 42.3173183501 8.9273912884 0.3702919986 1
18.9001636207 42.3173183501 9.2983572482 0.4852148103 1
19.8511156142 42.3173183501 9.5997173006 0.5148846331 1
20.8020676076 42.3173183501 9.2723817889 0.8272967177 1
21.7530196011 42.3173183501 9.7613158091 0.5221312691 1
22.7039715946 42.3173183501 9.266280421 0.6302849633 1
23.654923588 42.3173183501 9.7934547525 0.8468136408 1
24.6058755815 42.3173183501 9.6772694283 0.6912489487 1
25.556827575 42.3173183501 9.9700698625 0.7298161467 1
26.5077795684 42.3173183501 8.7395377974 1.295553794 1
27.4587315619 42.3173183501 8.915168365 0.9908239356 1
28.4096835554 42.3173183501 9.5575403725 0.8212877478 1
29.3606355488 42.3173183501 9.6172387394 0.8815210909 1
30.3115875423 42.3173183501 9.571580196 0.6885562097 1
31.2625395358 42.3173183501 0 -0 0
32.2134915292 42.3173183501 0 -0 0
33.1644435227 42.3173183501 9.9530438007 0.7234205032 1
34.1153955162 42.3173183501 10.0986163189 0.90912089 1
35.0663475096 42.3173183501 9.187840031 0.9710857233 1
36.0172995031 42.3173183501 9.2303089055 0.1150206447 1
36.9682514966 42.3173183501 10.1724461308 0.4701438571 1
37.91920349 42.3173183501 9.8063500843 1.8188101435 1
38.8701554835 42.3173183501 9.5938333396 1.1240128045 1
39.8211074769 42.3173183501 0 -0 0
40.7720594704 42.3173183501 9.5501392223 1.0177544321 1
41.7230114639 42.3173183501 0 -0 0
42.6739634573 42.3173183501 10.3718594544 0.9583169534 1
43.6249154508 42.3173183501 9.6863430583 0.7071142133 1
44.5758674443 42.3173183501 9.3723252688 0.6460205603 1
45.5268194377 42.3173183501 9.2141555768 0.9514655319 1
46.4777714312 42.3173183501 10.3827065031 0.8615064614 1
47.4287234247 42.3173183501 10.3421756554 1.2738884253 1
48.3796754181 42.3173183501 9.231854047 0.88512228 1
49.3306274116 42.3173183501 10.5201806163 0.8348842166 1
50.2815794051 42.3173183501 9.876746421 0.7482429298 1
51.2325313985 42.3173183501 9.2669683584 0.8151817212 1
52.183483392 42.3173183501 9.5009695583 0.56582461 1
53.1344353855 42.3173183501 9.555861681 1.1369003718 1
54.0853873789 42.3173183501 0 -0 0
55.0363393724 42.3173183501 10.8488500742 1.0755838767 1
55.9872913659 42.3173183501 10.0011885467 1.3242810029 1
56.9382433593 42.3173183501 10.2653363115 0.9269692156 1
57.8891953528 42.3173183501 10.3205887085 0.464345306 1
58.8401473463 42.3173183501 10.0994952637 0.8715840451 1
59.7910993397 42.3173183501 10.4468725807 0.5850884094 1
60.7420513332 42.3173183501 9.3341967668 0.558526728 1
61.6930033267 42.3173183501 9.5719311528 1.153820836 1
62.6439553201 42.3173183501 10.3656524889 0.5526497551 1
63.5949073136 42.3173183501 10.5065523128 0.5927372481 1
64.5458593071 42.3173183501 10.232191085 0.7831701161 1
65.4968113005 42.3173183501 10.5746006556 0.489027971 1
66.447763294 42.3173183501 10.5057184023 0.57845983 1
67.3987152874 42.3173183501 10.4019889374 -0.0557695147 1
68.3496672809 42.3173183501 10.3628898691 0.9270080382 1
69.3006192744 42.3173183501 0 -0 0
70.2515712678 42.3173183501 0 -0 0
71.2025232613 42.3173183501 0 -0 0
72.1534752548 42.3173183501 10.3493485284 0.4551451141 1
73.1044272482 42.3173183501 10.1141904136 0.5901415657 1
74.0553792417 42.3173183501 0 -0 0
75.0063312352 42.3173183501 10.7151262291 0.564989923 1
75.9572832286 42.3173183501 0 -0 0
76.9082352221 42.3173183501 0 -0 0
77.8591872156 42.3173183501 0 -0 0
78.810139209 42.3173183501 10.5003111835 0.6783652638 1
79.7610912025 42.3173183501 0 -0 0
80.712043196 42.3173183501 0 -0 0
81.6629951894 42.3173183501 10.2638672624 1.3826570703 1
82.6139471829 42.3173183501 10.2474561514 0.5144637956 1
83.5648991764 42.3173183501 0 -0 0
84.5158511698 42.3173183501 0 -0 0
85.4668031633 42.3173183501 10.7025150792 0.0256648782 1
86.4177551568 42.3173183501 10.4873646058 -0.0946566113 1
87.3687071502 42.3173183501 9.6884503518 -0.1526483346 1
88.3196591437 42.3173183501 0 -0 0
89.2706111372 42.3173183501 0 -0 0
90.2215631306 42.3173183501 0 -0 0
91.1725151241 42.3173183501 0 -0 0
92.1234671175 42.3173183501 0 -0 0
93.074419111 42.3173183501 0 -0 0
94.0253711045 42.3173183501 0 -0 0
94.9763230979 42.3173183501 0 -0 0
95.9272750914 42.3173183501 0 -0 0
96.8782270849 42.3173183501 0 -0 0
97.8291790783 42.3173183501 0 -0 0
98.7801310718 42.3173183501 0 -0 0
99.7310830653 42.3173183501 0 -0 0
100.6820350587 42.3173183501 0 -0 0
101.6329870522 42.3173183501 6.9091305515 3.8285066036 1
102.5839390457 42.3173183501 3.967844204 -3.754687662 1
103.5348910391 42.3173183501 10.3353739269 0.9807797393 1
104.4858430326 42.3173183501 2.3495406299 -0.9611502305 1
105.4367950261 42.3173183501 10.280963205 -0.4856511769 1
106.3877470195 42.3173183501 3.2514172132 0.9486539955 1
107.338699013 42.3173183501 0 -0 0
108.2896510065 42.3173183501 -4.7417419181 -2.4199400724 1
109.2406029999 42.3173183501 10.3789298356 -0.070119143 1
110.1915549934 42.3173183501 5.7728707535 4.4275905787 1
111.1425069869 42.3173183501 8.1365474871 -4.0326438673 1
112.0934589803 42.3173183501 7.3468621538 -4.0349949671 1
113.0444109738 42.3173183501 5.4142100212 2.2794905912 1
113.9953629673 42.3173183501 4.6323684162 1.3774757993 1
114.9463149607 42.3173183501 10.2465741007 -1.0268327209 1
115.8972669542 42.3173183501 0.7186538581 -1.20566771 1
116.8482189476 42.3173183501 0.5621667398 -1.0949198863 1
117.7991709411 42.3173183501 5.0753084653 -2.3186067415 1
118.7501229346 42.3173183501 2.4965589036 -2.5764077794 1
119.701074928 42.3173183501 -4.7985534328 -2.5112571593 1
120.6520269215 42.3173183501 -2.3914442465 0.6523276881 1
121.602978915 42.3173183501 3.5504805175 -1.4074888144 1
122.5539309084 42.3173183501 3.6883863385 -1.8809621021 1
123.5048829019 42.3173183501 0 -0 0
124.4558348954 42.3173183501 10.4105019683 -0.4949492018 1
125.4067868888 42.3173183501 0 -0 0
126.3577388823 42.3173183501 10.6255235505 -0.4820461055 1
127.3086908758 42.3173183501 -8.4335407677 0.7758264234 1
128.2596428692 42.3173183501 -1.8565457604 -5.7510042836 1
129.2105948627 42.3173183501 5.3863058525 1.6266061863 1
130.1615468562 42.3173183501 6.7756769121 4.2520850201 1
131.1124988496 42.3173183501 10.0518707412 6.564803142 1
132.0634508431 42.3173183501 8.9421563191 -6.5376055455 1
133.0144028366 42.3173183501 9.9554368289 -4.91921035 1
133.96535483 42.3173183501 -4.9759760539 -1.1919889371 1
134.9163068235 42.3173183501 10.1220698588 6.5874934286 1
135.867258817 42.3173183501 6.0556394147 -5.4126633268 1
136.8182108104 42.3173183501 7.712003163 -4.8590771693 1
137.7691628039 42.3173183501 10.680024341 -1.2896651743 1
138.7201147974 42.3173183501 -4.6522650249 -3.4157612596 1
139.6710667908 42.3173183501 1.0549465318 1.489018711 1
140.6220187843 42.3173183501 -4.3303421672 -1.6469065505 1
141.5729707778 42.3173183501 -0.815640605 0.7772946961 1
142.5239227712 42.3173183501 10.3751950966 -0.5346562328 1
143.4748747647 42.3173183501 0 -0 0
144.4258267581 42.3173183501 0 -0 0
145.3767787516 42.3173183501 10.7661624862 -1.2432387188 1
146.3277307451 42.3173183501 5.9407802722 -3.022562344 1
147.2786827385 42.3173183501 0 -0 0
148.229634732 42.3173183501 -2.4973904848 6.9317051467 1
149.1805867255 42.3173183501 0 -0 0
150.1315387189 42.3173183501 0 -0 0
151.0824907124 42.3173183501 10.1790646164 -0.6067033086 1
152.0334427059 42.3173183501 9.8925270522 -0.4041391387 1
152.9843946993 42.3173183501 0 -0 0
153.9353466928 42.3173183501 9.7653564706 -1.08932166 1
154.8862986863 42.3173183501 10.4729086034 -0.614968651 1
155.8372506797 42.3173183501 0 -0 0
156.7882026732 42.3173183501 0 -0 0
157.7391546667 42.3173183501 9.880018394 -0.7988210796 1
158.6901066601 42.3173183501 0 -0 0
159.6410586536 42.3173183501 10.3511095238 -0.8107831149 1
160.5920106471 42.3173183501 10.1512101407 -0.4274793165 1
161.5429626405 42.3173183501 10.2456050874 -0.5426824277 1
162.493914634 42.3173183501 10.284351646 -0.5720276932 1
163.4448666275 42.3173183501 9.7681128788 -0.3713114814 1
164.3958186209 42.3173183501 0 -0 0
165.3467706144 42.3173183501 10.6433183009 -0.3555875313 1
166.2977226079 42.3173183501 10.3757929654 -0.8123096215 1
167.2486746013 42.3173183501 9.870118618 -0.7942174897 1
168.1996265948 42.3173183501 0 -0 0
-22.9417240918 41.3663663566 0 -0 0
-21.9907720983 41.3663663566 9.9595644531 0.5221638802 1
-21.0398201048 41.3663663566 9.2095496575 0.7500745825 1
-20.0888681114 41.3663663566 9.2705648888 -0.4378915515 1
-19.1379161179 41.3663663566 8.8542509667 -0.8080678586 1
-18.1869641244 41.3663663566 9.0771954756 0.1089146182 1
-17.236012131 41.3663663566 9.4483928184 -0.4040987631 1
-16.2850601375 41.3663663566 9.5794208186 0.9048535042 1
-15.334108144 41.3663663566 8.9834449849 0.3049822057 1
-14.3831561506 41.3663663566 9.4288572604 0.5865520234 1
-13.4322041571 41.3663663566 10.381798053 0.0877065803 1
-12.4812521636 41.3663663566 9.4860368138 0.3920567532 1
-11.5303001702 41.3663663566 9.600866451 0.2475704928 1
-10.5793481767 41.3663663566 8.9089396588 1.0778969302 1
-9.6283961833 41.3663663566 9.2296349443 0.4350342044 1
-8.6774441898 41.3663663566 8.7728942192 0.7936017624 1
-7.7264921963 41.3663663566 8.8387700464 0.7102013905 1
-6.7755402029 41.3663663566 9.9089226342 0.5395688511 1
-5.8245882094 41.3663663566 0 -0 0
-4.8736362159 41.3663663566 0 -0 0
-3.9226842225 41.3663663566 0 -0 0
-2.971732229 41.3663663566 0 -0 0
-2.0207802355 41.3663663566 0 -0 0
-1.0698282421 41.3663663566 0 -0 0
-0.1188762486 41.3663663566 0 -0 0
0.8320757449 41.3663663566 0 -0 0
1.7830277383 41.3663663566 0 -0 0
2.7339797318 41.3663663566 0 -0 0
3.6849317253 41.3663663566 0 -0 0
4.6358837187 41.3663663566 0 -0 0
5.5868357122 41.3663663566 0 -0 0
6.5377877057 41.3663663566 0 -0 0
7.4887396991 41.3663663566 0 -0 0
8.4396916926 41.3663663566 0 -0 0
9.3906436861 41.3663663566 0 -0 0
10.3415956795 41.3663663566 0 -0 0
11.292547673 41.3663663566 0 -0 0
12.2434996665 41.3663663566 0 -0 0
13.1944516599 41.3663663566 0 -0 0
14.1454036534 41.3663663566 0 -0 0
15.0963556468 41.3663663566 0 -0 0
16.0473076403 41.3663663566 9.6759510111 0.8011636384 1
16.9982596338 41.3663663566 8.9161513545 0.7745569227 1
17.9492116272 41.3663663566 9.0187223515 0.4698192998 1
18.9001636207 41.3663663566 8.9397570792 0.1905858292 1
19.8511156142 41.3663663566 9.8273966199 0.5509679579 1
20.8020676076 41.3663663566 9.3627158862 0.9066331345 1
21.7530196011 41.3663663566 9.6127741346 0.8878398656 1
22.7039715946 41.3663663566 9.192865235 0.8356373761 1
23.654923588 41.3663663566 10.1052021934 0.7757697423 1
24.6058755815 41.3663663566 9.5919543233 0.6311918605 1
25.556827575 41.3663663566 10.1627932669 1.1439994817 1
26.5077795684 41.3663663566 9.0304017578 0.5630425788 1
27.4587315619 41.3663663566 9.746541461 0.5344722135 1
28.4096835554 41.3663663566 9.3812265263 1.4077916311 1
29.3606355488 41.3663663566 9.5592873918 1.5329504229 1
30.3115875423 41.3663663566 9.4151140419 0.9745510331 1
31.2625395358 41.3663663566 9.1208787225 1.1930123022 1
32.2134915292 41.3663663566 9.2496658793 0.9745160928 1
33.1644435227 41.3663663566 9.515337045 1.1949518819 1
34.1153955162 41.3663663566 8.9239003556 1.0681625387 1
35.0663475096 41.3663663566 9.3098580704 0.7523123201 1
36.0172995031 41.3663663566 9.4283758595 0.600242443 1
36.9682514966 41.3663663566 9.7082374806 0.9149287586 1