TITLE = "B00027"
VARIABLES = "x", "y", "Vx", "Vy", "isValid"
ZONE T="Frame 0", I=202, J=155, F=POINT
-22.9417240918 44.219222337 0 -0 0
-21.9907720983 44.219222337 0 -0 0
-21.0398201048 44.219222337 0 -0 0
-20.0888681114 44.219222337 0 -0 0
-19.1379161179 44.219222337 0 -0 0
-18.1869641244 44.219222337 0 -0 0
-17.236012131 44.219222337 0 -0 0
-16.2850601375 44.219222337 0 -0 0
-15.334108144 44.219222337 0 -0 0
-14.3831561506 44.219222337 0 -0 0
-13.4322041571 44.219222337 0 -0 0
-12.4812521636 44.219222337 0 -0 0
-11.5303001702 44.219222337 0 -0 0
-10.5793481767 44.219222337 0 -0 0
-9.6283961833 44.219222337 0 -0 0
-8.6774441898 44.219222337 0 -0 0
-7.7264921963 44.219222337 0 -0 0
-6.7755402029 44.219222337 0 -0 0
-5.8245882094 44.219222337 0 -0 0
-4.8736362159 44.219222337 0 -0 0
-3.9226842225 44.219222337 0 -0 0
-2.971732229 44.219222337 0 -0 0
-2.0207802355 44.219222337 0 -0 0
-1.0698282421 44.219222337 0 -0 0
-0.1188762486 44.219222337 0 -0 0
0.8320757449 44.219222337 0 -0 0
1.7830277383 44.219222337 0 -0 0
2.7339797318 44.219222337 0 -0 0
3.6849317253 44.219222337 0 -0 0
4.6358837187 44.219222337 0 -0 0
5.5868357122 44.219222337 0 -0 0
6.5377877057 44.219222337 0 -0 0
7.4887396991 44.219222337 0 -0 0
8.4396916926 44.219222337 0 -0 0
9.3906436861 44.219222337 0 -0 0
10.3415956795 44.219222337 0 -0 0
11.292547673 44.219222337 0 -0 0
12.2434996665 44.219222337 0 -0 0
13.1944516599 44.219222337 0 -0 0
14.1454036534 44.219222337 0 -0 0
15.0963556468 44.219222337 0 -0 0
16.0473076403 44.219222337 0 -0 0
16.9982596338 44.219222337 0 -0 0
17.9492116272 44.219222337 0 -0 0
18.9001636207 44.219222337 0 -0 0
19.8511156142 44.219222337 0 -0 0
20.8020676076 44.219222337 0 -0 0
21.7530196011 44.219222337 0 -0 0
22.7039715946 44.219222337 0 -0 0
23.654923588 44.219222337 0 -0 0
24.6058755815 44.219222337 0 -0 0
25.556827575 44.219222337 0 -0 0
26.5077795684 44.219222337 0 -0 0
27.4587315619 44.219222337 0 -0 0
28.4096835554 44.219222337 0 -0 0
29.3606355488 44.219222337 0 -0 0
30.3115875423 44.219222337 0 -0 0
31.2625395358 44.219222337 0 -0 0
32.2134915292 44.219222337 0 -0 0
33.1644435227 44.219222337 0 -0 0
34.1153955162 44.219222337 0 -0 0
35.0663475096 44.219222337 0 -0 0
36.0172995031 44.219222337 0 -0 0
36.9682514966 44.219222337 0 -0 0
37.91920349 44.219222337 0 -0 0
38.8701554835 44.219222337 0 -0 0
39.8211074769 44.219222337 0 -0 0
40.7720594704 44.219222337 0 -0 0
41.7230114639 44.219222337 0 -0 0
42.6739634573 44.219222337 0 -0 0
43.6249154508 44.219222337 0 -0 0
44.5758674443 44.219222337 0 -0 0
45.5268194377 44.219222337 0 -0 0
46.4777714312 44.219222337 0 -0 0
47.4287234247 44.219222337 0 -0 0
48.3796754181 44.219222337 0 -0 0
49.3306274116 44.219222337 0 -0 0
50.2815794051 44.219222337 0 -0 0
51.2325313985 44.219222337 0 -0 0
52.183483392 44.219222337 0 -0 0
53.1344353855 44.219222337 0 -0 0
54.0853873789 44.219222337 0 -0 0
55.0363393724 44.219222337 0 -0 0
55.9872913659 44.219222337 0 -0 0
56.9382433593 44.219222337 0 -0 0
57.8891953528 44.219222337 0 -0 0
58.8401473463 44.219222337 0 -0 0
59.7910993397 44.219222337 0 -0 0
60.7420513332 44.219222337 0 -0 0
61.6930033267 44.219222337 0 -0 0
62.6439553201 44.219222337 0 -0 0
63.5949073136 44.219222337 0 -0 0
64.5458593071 44.219222337 0 -0 0
65.4968113005 44.219222337 0 -0 0
66.447763294 44.219222337 0 -0 0
67.3987152874 44.219222337 0 -0 0
68.3496672809 44.219222337 0 -0 0
69.3006192744 44.219222337 0 -0 0
70.2515712678 44.219222337 0 -0 0
71.2025232613 44.219222337 0 -0 0
72.1534752548 44.219222337 0 -0 0
73.1044272482 44.219222337 0 -0 0
74.0553792417 44.219222337 0 -0 0
75.0063312352 44.219222337 0 -0 0
75.9572832286 44.219222337 0 -0 0
76.9082352221 44.219222337 0 -0 0
77.8591872156 44.219222337 0 -0 0
78.810139209 44.219222337 0 -0 0
79.7610912025 44.219222337 0 -0 0
80.712043196 44.219222337 0 -0 0
81.6629951894 44.219222337 0 -0 0
82.6139471829 44.219222337 0 -0 0
83.5648991764 44.219222337 0 -0 0
84.5158511698 44.219222337 0 -0 0
85.4668031633 44.219222337 0 -0 0
86.4177551568 44.219222337 0 -0 0
87.3687071502 44.219222337 0 -0 0
88.3196591437 44.219222337 0 -0 0
89.2706111372 44.219222337 0 -0 0
90.2215631306 44.219222337 0 -0 0
91.1725151241 44.219222337 0 -0 0
92.1234671175 44.219222337 0 -0 0
93.074419111 44.219222337 0 -0 0
94.0253711045 44.219222337 0 -0 0
94.9763230979 44.219222337 0 -0 0
95.9272750914 44.219222337 0 -0 0
96.8782270849 44.219222337 0 -0 0
97.8291790783 44.219222337 0 -0 0
98.7801310718 44.219222337 0 -0 0
99.7310830653 44.219222337 0 -0 0
100.6820350587 44.219222337 0 -0 0
101.6329870522 44.219222337 0 -0 0
102.5839390457 44.219222337 0 -0 0
103.5348910391 44.219222337 0 -0 0
104.4858430326 44.219222337 0 -0 0
105.4367950261 44.219222337 0 -0 0
106.3877470195 44.219222337 0 -0 0
107.338699013 44.219222337 0 -0 0
108.2896510065 44.219222337 0 -0 0
109.2406029999 44.219222337 0 -0 0
110.1915549934 44.219222337 0 -0 0
111.1425069869 44.219222337 0 -0 0
112.0934589803 44.219222337 0 -0 0
113.0444109738 44.219222337 0 -0 0
113.9953629673 44.219222337 0 -0 0
114.9463149607 44.219222337 0 -0 0
115.8972669542 44.219222337 0 -0 0
116.8482189476 44.219222337 0 -0 0
117.7991709411 44.219222337 0 -0 0
118.7501229346 44.219222337 0 -0 0
119.701074928 44.219222337 0 -0 0
120.6520269215 44.219222337 0 -0 0
121.602978915 44.219222337 0 -0 0
122.5539309084 44.219222337 0 -0 0
123.5048829019 44.219222337 0 -0 0
124.4558348954 44.219222337 0 -0 0
125.4067868888 44.219222337 0 -0 0
126.3577388823 44.219222337 0 -0 0
127.3086908758 44.219222337 0 -0 0
128.2596428692 44.219222337 0 -0 0
129.2105948627 44.219222337 0 -0 0
130.1615468562 44.219222337 0 -0 0
131.1124988496 44.219222337 0 -0 0
132.0634508431 44.219222337 0 -0 0
133.0144028366 44.219222337 0 -0 0
133.96535483 44.219222337 0 -0 0
134.9163068235 44.219222337 0 -0 0
135.867258817 44.219222337 0 -0 0
136.8182108104 44.219222337 0 -0 0
137.7691628039 44.219222337 0 -0 0
138.7201147974 44.219222337 0 -0 0
139.6710667908 44.219222337 0 -0 0
140.6220187843 44.219222337 0 -0 0
141.5729707778 44.219222337 0 -0 0
142.5239227712 44.219222337 0 -0 0
143.4748747647 44.219222337 0 -0 0
144.4258267581 44.219222337 0 -0 0
145.3767787516 44.219222337 0 -0 0
146.3277307451 44.219222337 0 -0 0
147.2786827385 44.219222337 0 -0 0
148.229634732 44.219222337 0 -0 0
149.1805867255 44.219222337 0 -0 0
150.1315387189 44.219222337 0 -0 0
151.0824907124 44.219222337 0 -0 0
152.0334427059 44.219222337 0 -0 0
152.9843946993 44.219222337 0 -0 0
153.9353466928 44.219222337 0 -0 0
154.8862986863 44.219222337 0 -0 0
155.8372506797 44.219222337 0 -0 0
156.7882026732 44.219222337 0 -0 0
157.7391546667 44.219222337 0 -0 0
158.6901066601 44.219222337 0 -0 0
159.6410586536 44.219222337 0 -0 0
160.5920106471 44.219222337 0 -0 0
161.5429626405 44.219222337 0 -0 0
162.493914634 44.219222337 0 -0 0
163.4448666275 44.219222337 0 -0 0
164.3958186209 44.219222337 0 -0 0
165.3467706144 44.219222337 0 -0 0
166.2977226079 44.219222337 0 -0 0
167.2486746013 44.219222337 0 -0 0
168.1996265948 44.219222337 0 -0 0
-22.9417240918 43.2682703435 0 -0 0
-21.9907720983 43.2682703435 8.9424606886 0.2409760773 1
-21.0398201048 43.2682703435 9.5199088003 0.262269525 1
-20.0888681114 43.2682703435 8.6699334428 0.0040965661 1
-19.1379161179 43.2682703435 9.6414283569 -0.0387395706 1
-18.1869641244 43.2682703435 9.1029178112 0.192241227 1
-17.236012131 43.2682703435 9.1412854608 0.2166894033 1
-16.2850601375 43.2682703435 9.3490285724 -0.3336667096 1
-15.334108144 43.2682703435 9.3210980043 0.031601638 1
-14.3831561506 43.2682703435 9.1699831645 0.6341672284 1
-13.4322041571 43.2682703435 9.2113572401 0.2020074531 1
-12.4812521636 43.2682703435 8.9887838759 0.8611112468 1
-11.5303001702 43.2682703435 9.431574846 0.2283323163 1
-10.5793481767 43.2682703435 10.2921643163 0.4819909773 1
-9.6283961833 43.2682703435 9.5783865832 0.5726636082 1
-8.6774441898 43.2682703435 9.2561756614 0.2596885951 1
-7.7264921963 43.2682703435 9.1745300734 0.264640036 1
-6.7755402029 43.2682703435 9.2560809342 -0.0173638189 1
-5.8245882094 43.2682703435 0 -0 0
-4.8736362159 43.2682703435 0 -0 0
-3.9226842225 43.2682703435 0 -0 0
-2.971732229 43.2682703435 0 -0 0
-2.0207802355 43.2682703435 0 -0 0
-1.0698282421 43.2682703435 0 -0 0
-0.1188762486 43.2682703435 0 -0 0
0.8320757449 43.2682703435 0 -0 0
1.7830277383 43.2682703435 0 -0 0
2.7339797318 43.2682703435 0 -0 0
3.6849317253 43.2682703435 0 -0 0
4.6358837187 43.2682703435 0 -0 0
5.5868357122 43.2682703435 0 -0 0
6.5377877057 43.2682703435 0 -0 0
7.4887396991 43.2682703435 0 -0 0
8.4396916926 43.2682703435 0 -0 0
9.3906436861 43.2682703435 0 -0 0
10.3415956795 43.2682703435 0 -0 0
11.292547673 43.2682703435 0 -0 0
12.2434996665 43.2682703435 0 -0 0
13.1944516599 43.2682703435 0 -0 0
14.1454036534 43.2682703435 0 -0 0
15.0963556468 43.2682703435 0 -0 0
16.0473076403 43.2682703435 9.6033914763 1.6064882885 1
16.9982596338 43.2682703435 9.1333671929 1.1559327882 1
17.9492116272 43.2682703435 9.5769423806 0.6548115614 1
18.9001636207 43.2682703435 10.1933777514 0.6548449488 1
19.8511156142 43.2682703435 9.1451475381 1.3522333116 1
20.8020676076 43.2682703435 10.272996797 0.9387697486 1
21.7530196011 43.2682703435 9.614948203 0.611242453 1
22.7039715946 43.2682703435 9.2411311077 1.0053560303 1
23.654923588 43.2682703435 10.0761597446 0.3255170587 1
24.6058755815 43.2682703435 8.9229437655 0.4040428585 1
25.556827575 43.2682703435 9.3985119234 0.1404323992 1
26.5077795684 43.2682703435 10.1241119303 0.2495411306 1
27.4587315619 43.2682703435 9.4952113827 1.0443704652 1
28.4096835554 43.2682703435 10.1418725167 0.3853373288 1
29.3606355488 43.2682703435 9.5348710501 0.7417269361 1
30.3115875423 43.2682703435 10.1589948587 0.7597134703 1
31.2625395358 43.2682703435 9.6867079912 0.9485429627 1
32.2134915292 43.2682703435 9.9333001533 0.7020618335 1
33.1644435227 43.2682703435 9.5617673827 0.1193020067 1
34.1153955162 43.2682703435 9.7184820017 0.4538119443 1
35.0663475096 43.2682703435 9.6631224543 0.6920587892 1
36.0172995031 43.2682703435 10.0835484715 0.6907380426 1
36.9682514966 43.2682703435 9.7399726685 0.7407571463 1
37.91920349 43.2682703435 9.2010443911 0.8912430592 1
38.8701554835 43.2682703435 10.5364628361 1.539394983 1
39.8211074769 43.2682703435 10.4902095297 1.4215752251 1
40.7720594704 43.2682703435 9.6937970073 0.9205533842 1
41.7230114639 43.2682703435 0 -0 0
42.6739634573 43.2682703435 0 -0 0
43.6249154508 43.2682703435 0 -0 0
44.5758674443 43.2682703435 9.7131757218 1.1807171686 1
45.5268194377 43.2682703435 0 -0 0
46.4777714312 43.2682703435 10.1895234386 0.4825857403 1
47.4287234247 43.2682703435 9.4391530274 0.654776621 1
48.3796754181 43.2682703435 0 -0 0
49.3306274116 43.2682703435 10.1508778188 1.2542558107 1
50.2815794051 43.2682703435 10.1608086529 0.7028250868 1
51.2325313985 43.2682703435 10.4337101491 0.429677455 1
52.183483392 43.2682703435 9.3752757903 0.7340416041 1
53.1344353855 43.2682703435 0 -0 0
54.0853873789 43.2682703435 10.2692434231 1.1370556624 1
55.0363393724 43.2682703435 0 -0 0
55.9872913659 43.2682703435 0 -0 0
56.9382433593 43.2682703435 0 -0 0
57.8891953528 43.2682703435 10.360610203 1.1080559185 1
58.8401473463 43.2682703435 10.7159803275 1.2626399504 1
59.7910993397 43.2682703435 9.6004999652 0.6790174843 1
60.7420513332 43.2682703435 0 -0 0
61.6930033267 43.2682703435 9.4564912234 0.4703294294 1
62.6439553201 43.2682703435 10.3313782997 0.859843299 1
63.5949073136 43.2682703435 10.6044055813 0.6932475388 1
64.5458593071 43.2682703435 10.408276654 1.032062132 1
65.4968113005 43.2682703435 10.4944629393 0.732605166 1
66.447763294 43.2682703435 10.3576099885 1.152324611 1
67.3987152874 43.2682703435 10.2838329754 0.4302698887 1
68.3496672809 43.2682703435 0 -0 0
69.3006192744 43.2682703435 0 -0 0
70.2515712678 43.2682703435 10.6405277287 0.748909903 1
71.2025232613 43.2682703435 10.3621584503 0.5537794943 1
72.1534752548 43.2682703435 0 -0 0
73.1044272482 43.2682703435 0 -0 0
74.0553792417 43.2682703435 0 -0 0
75.0063312352 43.2682703435 0 -0 0
75.9572832286 43.2682703435 0 -0 0
76.9082352221 43.2682703435 9.5076719007 0.5876530338 1
77.8591872156 43.2682703435 10.0774610798 0.9713768932 1
78.810139209 43.2682703435 10.3577047158 0.017245798 1
79.7610912025 43.2682703435 10.3317214919 -0.049913506 1
80.712043196 43.2682703435 9.6738576937 0.9498590506 1
81.6629951894 43.2682703435 10.4402494365 1.5043132826 1
82.6139471829 43.2682703435 10.6887703078 -0.0108268609 1
83.5648991764 43.2682703435 10.3140168101 -0.2581939231 1
84.5158511698 43.2682703435 0 -0 0
85.4668031633 43.2682703435 0 -0 0
86.4177551568 43.2682703435 10.2697201653 0.7975407086 1
87.3687071502 43.2682703435 0 -0 0
88.3196591437 43.2682703435 10.3034508374 0.9754820003 1
89.2706111372 43.2682703435 4.5753783174 -3.9925183281 1
90.2215631306 43.2682703435 0.2890090141 -6.3418322337 1
91.1725151241 43.2682703435 0 -0 0
92.1234671175 43.2682703435 0 -0 0
93.074419111 43.2682703435 0 -0 0
94.0253711045 43.2682703435 0 -0 0
94.9763230979 43.2682703435 0 -0 0
95.9272750914 43.2682703435 0 -0 0
96.8782270849 43.2682703435 0 -0 0
97.8291790783 43.2682703435 0 -0 0
98.7801310718 43.2682703435 0 -0 0
99.7310830653 43.2682703435 0 -0 0
100.6820350587 43.2682703435 0 -0 0
101.6329870522 43.2682703435 0 -0 0
102.5839390457 43.2682703435 0 -0 0
103.5348910391 43.2682703435 0 -0 0
104.4858430326 43.2682703435 0 -0 0
105.4367950261 43.2682703435 10.0444913317 0.1487955747 1
106.3877470195 43.2682703435 0 -0 0
107.338699013 43.2682703435 -2.0571175518 -4.6054674249 1
108.2896510065 43.2682703435 -2.2079474334 -4.3808659653 1
109.2406029999 43.2682703435 -1.5763106654 -4.9722498558 1
110.1915549934 43.2682703435 0 -0 0
111.1425069869 43.2682703435 -3.9228021643 -5.8185650138 1
112.0934589803 43.2682703435 -0.9746612895 -1.9776367148 1
113.0444109738 43.2682703435 -3.0821023145 -1.1361254716 1
113.9953629673 43.2682703435 -1.380628975 6.2328380291 1
114.9463149607 43.2682703435 3.1630413303 0.0142758652 1
115.8972669542 43.2682703435 0 -0 0
116.8482189476 43.2682703435 0 -0 0
117.7991709411 43.2682703435 3.7108196192 2.1655336872 1
118.7501229346 43.2682703435 0 -0 0
119.701074928 43.2682703435 0 -0 0
120.6520269215 43.2682703435 10.5073722472 -0.5435908777 1
121.602978915 43.2682703435 0 -0 0
122.5539309084 43.2682703435 0 -0 0
123.5048829019 43.2682703435 0 -0 0
124.4558348954 43.2682703435 0 -0 0
125.4067868888 43.2682703435 9.2800127692 -3.4177148154 1
126.3577388823 43.2682703435 -2.3044419091 -0.5500338849 1
127.3086908758 43.2682703435 0.7259742572 4.0078882157 1
128.2596428692 43.2682703435 2.7877225749 4.1047926585 1
129.2105948627 43.2682703435 10.6052224098 3.7484139216 1
130.1615468562 43.2682703435 2.8325363374 0.6342767083 1
131.1124988496 43.2682703435 8.8092337735 -0.0309385471 1
132.0634508431 43.2682703435 7.5187719584 -0.0237881912 1
133.0144028366 43.2682703435 0 -0 0
133.96535483 43.2682703435 3.8013260891 0.5300976771 1
134.9163068235 43.2682703435 -2.7203194646 -5.6552660732 1
135.867258817 43.2682703435 -2.41684746 -4.5758038136 1
136.8182108104 43.2682703435 0 -0 0
137.7691628039 43.2682703435 0 -0 0
138.7201147974 43.2682703435 -1.7229508065 -0.6005258484 1
139.6710667908 43.2682703435 -1.5892269614 -0.4145529266 1
140.6220187843 43.2682703435 10.6487394959 -0.4011567827 1
141.5729707778 43.2682703435 0 -0 0
142.5239227712 43.2682703435 0 -0 0
143.4748747647 43.2682703435 0 -0 0
144.4258267581 43.2682703435 0 -0 0
145.3767787516 43.2682703435 0 -0 0
146.3277307451 43.2682703435 0 -0 0
147.2786827385 43.2682703435 0 -0 0
148.229634732 43.2682703435 0 -0 0
149.1805867255 43.2682703435 10.2203719171 -0.4041647617 1
150.1315387189 43.2682703435 0 -0 0
151.0824907124 43.2682703435 0 -0 0
152.0334427059 43.2682703435 10.4156125821 -0.6799608747 1
152.9843946993 43.2682703435 0 -0 0
153.9353466928 43.2682703435 0 -0 0
154.8862986863 43.2682703435 0 -0 0
155.8372506797 43.2682703435 0 -0 0
156.7882026732 43.2682703435 0 -0 0
157.7391546667 43.2682703435 0 -0 0
158.6901066601 43.2682703435 0 -0 0
159.6410586536 43.2682703435 0 -0 0
160.5920106471 43.2682703435 0 -0 0
161.5429626405 43.2682703435 0 -0 0
162.493914634 43.2682703435 0 -0 0
163.4448666275 43.2682703435 0 -0 0
164.3958186209 43.2682703435 0 -0 0
165.3467706144 43.2682703435 9.8238668645 -1.0491681685 1
166.2977226079 43.2682703435 10.2405068968 -0.7184690623 1
167.2486746013 43.2682703435 10.3226587323 -0.419678293 1
168.1996265948 43.2682703435 0 -0 0
-22.9417240918 42.3173183501 0 -0 0
-21.9907720983 42.3173183501 9.0285087653 0.4796771473 1
-21.0398201048 42.3173183501 9.6488528006 0.5145499818 1
-20.0888681114 42.3173183501 9.084477052 -0.2945039721 1
-19.1379161179 42.3173183501 9.2679777473 0.2316912521 1
-18.1869641244 42.3173183501 9.0455177452 -0.1073081369 1
-17.236012131 42.3173183501 9.3061202255 0.6438767735 1
-16.2850601375 42.3173183501 9.1197171488 0.3486965107 1
-15.334108144 42.3173183501 9.2555933217 0.2161000754 1
-14.3831561506 42.3173183501 9.2335389501 0.6344684922 1
-13.4322041571 42.3173183501 9.1648601274 0.7612236714 1
-12.4812521636 42.3173183501 8.9669143001 0.468616574 1
-11.5303001702 42.3173183501 8.9576481097 0.3039906752 1
-10.5793481767 42.3173183501 9.7109690423 -0.065813711 1
-9.6283961833 42.3173183501 9.7649729028 0.4665279154 1
-8.6774441898 42.3173183501 9.2616061739 0.4882872349 1
-7.7264921963 42.3173183501 9.6096465818 0.6435095112 1
-6.7755402029 42.3173183501 0 -0 0
-5.8245882094 42.3173183501 0 -0 0
-4.8736362159 42.3173183501 0 -0 0
-3.9226842225 42.3173183501 0 -0 0
-2.971732229 42.3173183501 0 -0 0
-2.0207802355 42.3173183501 0 -0 0
-1.0698282421 42.3173183501 0 -0 0
-0.1188762486 42.3173183501 0 -0 0
0.8320757449 42.3173183501 0 -0 0
1.7830277383 42.3173183501 0 -0 0
2.7339797318 42.3173183501 0 -0 0
3.6849317253 42.3173183501 0 -0 0
4.6358837187 42.3173183501 0 -0 0
5.5868357122 42.3173183501 0 -0 0
6.5377877057 42.3173183501 0 -0 0
7.4887396991 42.3173183501 0 -0 0
8.4396916926 42.3173183501 0 -0 0
9.3906436861 42.3173183501 0 -0 0
10.3415956795 42.3173183501 0 -0 0
11.292547673 42.3173183501 0 -0 0
12.2434996665 42.3173183501 0 -0 0
13.1944516599 42.3173183501 0 -0 0
14.1454036534 42.3173183501 0 -0 0
15.0963556468 42.3173183501 0 -0 0
16.0473076403 42.3173183501 9.9752534629 1.4794458217 1
16.9982596338 42.3173183501 9.4925807598 0.8862652188 1
17.9492116272 42.3173183501 9.2112640658 0.9737800153 1
18.9001636207 42.3173183501 9.5922990684 0.6047909048 1
19.8511156142 42.3173183501 9.6469085623 0.6936140246 1
20.8020676076 42.3173183501 10.1717286882 0.3720366886 1
21.7530196011 42.3173183501 9.5161336858 0.7059223579 1
22.7039715946 42.3173183501 9.1233400786 1.0413648156 1
23.654923588 42.3173183501 0 -0 0
24.6058755815 42.3173183501 9.3286389161 0.2797769877 1
25.556827575 42.3173183501 9.2983324017 0.7166855497 1
26.5077795684 42.3173183501 0 -0 0
27.4587315619 42.3173183501 10.1239069467 1.1243288209 1
28.4096835554 42.3173183501 0 -0 0
29.3606355488 42.3173183501 10.1843460498 1.2472382283 1
30.3115875423 42.3173183501 9.7975311309 1.0052496562 1
31.2625395358 42.3173183501 9.5578990938 0.6838446927 1
32.2134915292 42.3173183501 9.8523611374 0.8477298554 1
33.1644435227 42.3173183501 0 -0 0
34.1153955162 42.3173183501 9.8501886219 0.5723087692 1
35.0663475096 42.3173183501 9.9999400102 0.7535096107 1
36.0172995031 42.3173183501 9.473389947 0.6587365314 1
36.9682514966 42.3173183501 9.0869865482 0.3839583482 1
37.91920349 42.3173183501 8.9692591882 0.0724430669 1
38.8701554835 42.3173183501 9.9771635373 0.9417311404 1
39.8211074769 42.3173183501 9.7812846279 2.0587900317 1
40.7720594704 42.3173183501 10.0003391071 1.4417971676 1
41.7230114639 42.3173183501 0 -0 0
42.6739634573 42.3173183501 10.1233183953 1.4594094515 1
43.6249154508 42.3173183501 0 -0 0
44.5758674443 42.3173183501 10.0315199075 0.8459253786 1
45.5268194377 42.3173183501 9.5728706609 0.4965828589 1
46.4777714312 42.3173183501 10.2266549749 1.3661403617 1
47.4287234247 42.3173183501 9.8639799804 0.7470930029 1
48.3796754181 42.3173183501 10.1092630427 0.2992620763 1
49.3306274116 42.3173183501 10.3412221711 1.1520249001 1
50.2815794051 42.3173183501 9.2510402011 0.8497307748 1
51.2325313985 42.3173183501 9.9869918797 0.8947634972 1
52.183483392 42.3173183501 9.3132496172 0.9763423103 1
53.1344353855 42.3173183501 9.3238280131 0.4682795934 1
54.0853873789 42.3173183501 10.1744167686 0.7801970775 1
55.0363393724 42.3173183501 10.042320369 1.5259359463 1
55.9872913659 42.3173183501 9.8904539226 0.856074396 1
56.9382433593 42.3173183501 0 -0 0
57.8891953528 42.3173183501 10.5767545363 1.302990661 1
58.8401473463 42.3173183501 10.0395950189 1.2008459367 1
59.7910993397 42.3173183501 10.0269947393 0.791311226 1
60.7420513332 42.3173183501 9.6776452316 0.1941342195 1
61.6930033267 42.3173183501 10.1992943234 0.6569631127 1
62.6439553201 42.3173183501 10.488665941 1.2238250639 1
63.5949073136 42.3173183501 10.5741906884 0.5787890461 1
64.5458593071 42.3173183501 10.689130582 0.3447389297 1
65.4968113005 42.3173183501 10.6311217768 0.7288440276 1
66.447763294 42.3173183501 9.6941883396 0.8040271971 1
67.3987152874 42.3173183501 9.5725756088 -0.2193487549 1
68.3496672809 42.3173183501 9.6963220325 1.1195652816 1
69.3006192744 42.3173183501 10.1769464525 -0.0005062474 1
70.2515712678 42.3173183501 0 -0 0
71.2025232613 42.3173183501 10.1957164279 0.9612185583 1
72.1534752548 42.3173183501 0 -0 0
73.1044272482 42.3173183501 0 -0 0
74.0553792417 42.3173183501 0 -0 0
75.0063312352 42.3173183501 0 -0 0
75.9572832286 42.3173183501 0 -0 0
76.9082352221 42.3173183501 9.6230015738 0.6833081637 1
77.8591872156 42.3173183501 9.9965484634 0.7217845167 1
78.810139209 42.3173183501 10.6175462722 0.2010361104 1
79.7610912025 42.3173183501 10.0852628798 0.4688495099 1
80.712043196 42.3173183501 9.9141497159 0.4026429137 1
81.6629951894 42.3173183501 9.5956098641 0.0166587996 1
82.6139471829 42.3173183501 9.8887410673 -0.7340532509 1
83.5648991764 42.3173183501 10.5155809086 0.7697561137 1
84.5158511698 42.3173183501 10.5262586905 0.0268854623 1
85.4668031633 42.3173183501 10.3178183241 1.1678249427 1
86.4177551568 42.3173183501 10.1898324669 1.1160091268 1
87.3687071502 42.3173183501 10.4247467755 0.9262277029 1
88.3196591437 42.3173183501 10.2871204775 2.3321255651 1
89.2706111372 42.3173183501 0 -0 0
90.2215631306 42.3173183501 0 -0 0
91.1725151241 42.3173183501 1.2085499036 -7.1158580626 1
92.1234671175 42.3173183501 0 -0 0
93.074419111 42.3173183501 0 -0 0
94.0253711045 42.3173183501 0 -0 0
94.9763230979 42.3173183501 0 -0 0
95.9272750914 42.3173183501 0 -0 0
96.8782270849 42.3173183501 0 -0 0
97.8291790783 42.3173183501 0 -0 0
98.7801310718 42.3173183501 0 -0 0
99.7310830653 42.3173183501 0 -0 0
100.6820350587 42.3173183501 0 -0 0
101.6329870522 42.3173183501 0 -0 0
102.5839390457 42.3173183501 0 -0 0
103.5348910391 42.3173183501 0 -0 0
104.4858430326 42.3173183501 10.6083049283 0.31643877 1
105.4367950261 42.3173183501 10.2017277271 0.0615385606 1
106.3877470195 42.3173183501 0 -0 0
107.338699013 42.3173183501 10.3284013788 0.4729243354 1
108.2896510065 42.3173183501 -0.7079030896 -3.4442244744 1
109.2406029999 42.3173183501 -3.7769540053 -3.5018264183 1
110.1915549934 42.3173183501 -0.7338669021 -5.7812362584 1
111.1425069869 42.3173183501 0.1415396212 -9.9359509639 1
112.0934589803 42.3173183501 0.5813909402 -10.5754578597 1
113.0444109738 42.3173183501 -0.9121498332 9.5615437642 1
113.9953629673 42.3173183501 -0.4030847155 7.2498443488 1
114.9463149607 42.3173183501 1.5118573001 2.467645346 1
115.8972669542 42.3173183501 -0.3594146682 -0.5992439245 1
116.8482189476 42.3173183501 0.141187888 -1.1913405989 1
117.7991709411 42.3173183501 0 -0 0
118.7501229346 42.3173183501 0 -0 0
119.701074928 42.3173183501 10.3301204458 0.169788535 1
120.6520269215 42.3173183501 10.4521555671 -0.0206994611 1
121.602978915 42.3173183501 0 -0 0
122.5539309084 42.3173183501 0 -0 0
123.5048829019 42.3173183501 0 -0 0
124.4558348954 42.3173183501 10.5234044492 -0.3907422183 1
125.4067868888 42.3173183501 10.4005136767 -0.6913165001 1
126.3577388823 42.3173183501 5.1529553203 5.6380622036 1
127.3086908758 42.3173183501 7.0561441665 7.3602963439 1
128.2596428692 42.3173183501 7.3939089952 -4.3305735502 1
129.2105948627 42.3173183501 2.8302333777 -7.2519609597 1
130.1615468562 42.3173183501 0 -0 0
131.1124988496 42.3173183501 10.0453050544 0.3891543719 1
132.0634508431 42.3173183501 6.9623890172 -0.4599498054 1
133.0144028366 42.3173183501 -8.5123849132 1.2816164623 1
133.96535483 42.3173183501 -8.0642146766 0.4334603341 1
134.9163068235 42.3173183501 -5.0925915331 3.9230001598 1
135.867258817 42.3173183501 0 -0 0
136.8182108104 42.3173183501 1.335476679 2.0008223785 1
137.7691628039 42.3173183501 0 -0 0
138.7201147974 42.3173183501 -0.7125827719 -0.9715096667 1
139.6710667908 42.3173183501 -1.4517846828 -0.6977843538 1
140.6220187843 42.3173183501 10.7445755393 -0.2399597003 1
141.5729707778 42.3173183501 0 -0 0
142.5239227712 42.3173183501 0 -0 0
143.4748747647 42.3173183501 0 -0 0
144.4258267581 42.3173183501 0 -0 0
145.3767787516 42.3173183501 0 -0 0
146.3277307451 42.3173183501 0 -0 0
147.2786827385 42.3173183501 0 -0 0
148.229634732 42.3173183501 10.4046801236 -0.24119659 1
149.1805867255 42.3173183501 10.4334446022 -0.3007474309 1
150.1315387189 42.3173183501 0 -0 0
151.0824907124 42.3173183501 0 -0 0
152.0334427059 42.3173183501 10.2405115555 -0.3676776813 1
152.9843946993 42.3173183501 0 -0 0
153.9353466928 42.3173183501 0 -0 0
154.8862986863 42.3173183501 0 -0 0
155.8372506797 42.3173183501 0 -0 0
156.7882026732 42.3173183501 0 -0 0
157.7391546667 42.3173183501 0 -0 0
158.6901066601 42.3173183501 0 -0 0
159.6410586536 42.3173183501 0 -0 0
160.5920106471 42.3173183501 0 -0 0
161.5429626405 42.3173183501 0 -0 0
162.493914634 42.3173183501 0 -0 0
163.4448666275 42.3173183501 0 -0 0
164.3958186209 42.3173183501 0 -0 0
165.3467706144 42.3173183501 10.7031471119 -0.8208311934 1
166.2977226079 42.3173183501 10.4398068582 -0.734596768 1
167.2486746013 42.3173183501 0 -0 0
168.1996265948 42.3173183501 0 -0 0
-22.9417240918 41.3663663566 0 -0 0
-21.9907720983 41.3663663566 9.7202693966 0.0766576539 1
-21.0398201048 41.3663663566 9.5243143948 -0.3089623038 1
-20.0888681114 41.3663663566 8.9331727576 -0.7580386611 1
-19.1379161179 41.3663663566 9.280081097 0.2771292829 1
-18.1869641244 41.3663663566 9.4243569387 -0.17432535 1
-17.236012131 41.3663663566 9.6644175779 0.2024244084 1
-16.2850601375 41.3663663566 9.450284258 0.5411124397 1
-15.334108144 41.3663663566 0 -0 0
-14.3831561506 41.3663663566 9.2817908466 0.0677028212 1
-13.4322041571 41.3663663566 9.2310698294 0.5830688551 1
-12.4812521636 41.3663663566 9.4156187364 -0.4163348863 1
-11.5303001702 41.3663663566 8.5690908302 0.3451023097 1
-10.5793481767 41.3663663566 9.2244761904 -0.2854769293 1
-9.6283961833 41.3663663566 9.2903970519 0.47846821 1
-8.6774441898 41.3663663566 9.4481055308 -0.3082440848 1
-7.7264921963 41.3663663566 9.5059202227 0.5614151333 1
-6.7755402029 41.3663663566 8.5276577441 0.4050871878 1
-5.8245882094 41.3663663566 0 -0 0
-4.8736362159 41.3663663566 0 -0 0
-3.9226842225 41.3663663566 0 -0 0
-2.971732229 41.3663663566 0 -0 0
-2.0207802355 41.3663663566 0 -0 0
-1.0698282421 41.3663663566 0 -0 0
-0.1188762486 41.3663663566 0 -0 0
0.8320757449 41.3663663566 0 -0 0
1.7830277383 41.3663663566 0 -0 0
2.7339797318 41.3663663566 0 -0 0
3.6849317253 41.3663663566 0 -0 0
4.6358837187 41.3663663566 0 -0 0
5.5868357122 41.3663663566 0 -0 0
6.5377877057 41.3663663566 0 -0 0
7.4887396991 41.3663663566 0 -0 0
8.4396916926 41.3663663566 0 -0 0
9.3906436861 41.3663663566 0 -0 0
10.3415956795 41.3663663566 0 -0 0
11.292547673 41.3663663566 0 -0 0
12.2434996665 41.3663663566 0 -0 0
13.1944516599 41.3663663566 0 -0 0
14.1454036534 41.3663663566 0 -0 0
15.0963556468 41.3663663566 0 -0 0
16.0473076403 41.3663663566 9.3708111854 1.3006628549 1
16.9982596338 41.3663663566 9.2456469585 0.7263314256 1
17.9492116272 41.3663663566 9.0675472703 0.8039604222 1
18.9001636207 41.3663663566 10.1181534298 0.8168076138 1
19.8511156142 41.3663663566 9.6861753445 0.8331395267 1
20.8020676076 41.3663663566 10.0105292765 0.4555310113 1
21.7530196011 41.3663663566 9.7657773082 0.7243367178 1
22.7039715946 41.3663663566 0 -0 0
23.654923588 41.3663663566 9.182552386 0.8790185828 1
24.6058755815 41.3663663566 9.1264101738 0.8636789769 1
25.556827575 41.3663663566 9.5052975074 0.4607829395 1
26.5077795684 41.3663663566 0 -0 0
27.4587315619 41.3663663566 0 -0 0
28.4096835554 41.3663663566 0 -0 0
29.3606355488 41.3663663566 0 -0 0
30.3115875423 41.3663663566 9.0805218003 0.595614783 1
31.2625395358 41.3663663566 9.0773383429 1.5731613719 1
32.2134915292 41.3663663566 9.0671637025 1.1937639087 1
33.1644435227 41.3663663566 10.0739344302 -0.0196232972 1
34.1153955162 41.3663663566 10.2099922931 1.0781826649 1
35.0663475096 41.3663663566 0 -0 0
36.0172995031 41.3663663566 9.5533537378 0.4074437228 1
36.9682514966 41.3663663566 9.1683572718 1.035118251 1
37.91920349 41.3663663566 9.2548261861 0.4336785174 1
38.8701554835 41.3663663566 9.96549966 0.6915688474 1
39.8211074769 41.3663663566 9.1951247133 1.585423118 1
40.7720594704 41.3663663566 9.6145087306 1.2824247499 1
41.7230114639 41.3663663566 9.9528869572 0.6372637231 1
42.6739634573 41.3663663566 10.1894908275 1.5277528464 1
43.6249154508 41.3663663566 0 -0 0
44.5758674443 41.3663663566 9.8224723548 0.9012965729 1
45.5268194377 41.3663663566 9.8256573651 1.0360181601 1
46.4777714312 41.3663663566 10.3870344522 1.7178052523 1
47.4287234247 41.3663663566 9.8260176393 0.8601663034 1
48.3796754181 41.3663663566 10.0035908923 1.4162270167 1
49.3306274116 41.3663663566 10.4855290708 0.7963985462 1
50.2815794051 41.3663663566 9.2008968651 1.2998056507 1
51.2325313985 41.3663663566 9.2185922294 0.735273835 1
52.183483392 41.3663663566 8.8034662804 0.5618111243 1
53.1344353855 41.3663663566 9.8188354489 0.8938628117 1
54.0853873789 41.3663663566 10.0244231269 0.8806374873 1